
.Version 9.6.2 of ABINIT 
.(MPI version, prepared for a x86_64_linux_gnu10.3 computer) 

.Copyright (C) 1998-2021 ABINIT group . 
 ABINIT comes with ABSOLUTELY NO WARRANTY.
 It is free software, and you are welcome to redistribute it
 under certain conditions (GNU General Public License,
 see ~abinit/COPYING or http://www.gnu.org/copyleft/gpl.txt).

 ABINIT is a project of the Universite Catholique de Louvain,
 Corning Inc. and other collaborators, see ~abinit/doc/developers/contributors.txt .
 Please read https://docs.abinit.org/theory/acknowledgments for suggested
 acknowledgments of the ABINIT effort.
 For more information, see https://www.abinit.org .

.Starting date : Wed 14 Dec 2022.
- ( at 17h52 )
  
- input  file    -> NiC2O4.in
- output file    -> NiC2O4.out
- root for input  files -> abi
- root for output files -> abo


 Symmetries : space group P1 (#  1); Bravais aP (primitive triclinic)
================================================================================
 Values of the parameters that define the memory need of the present run
     intxc =       0    ionmov =       0      iscf =       7    lmnmax =       6
     lnmax =       6     mgfft =     180  mpssoang =       3    mqgrid =    7172
     natom =      14  nloc_mem =       1    nspden =       2   nspinor =       1
    nsppol =       2      nsym =       1    n1xccc =       0    ntypat =       3
    occopt =       3   xclevel =       2
-    mband =          65        mffmem =           1         mkmem =           1
       mpw =      192887          nfft =     3888000          nkpt =           4
================================================================================
P This job should need less than                    2287.707 Mbytes of memory.
  Rough estimation (10% accuracy) of disk space for files :
_ WF disk file :   1530.477 Mbytes ; DEN or POT disk file :     59.328 Mbytes.
================================================================================

--------------------------------------------------------------------------------
------------- Echo of variables that govern the present computation ------------
--------------------------------------------------------------------------------
-
- outvars: echo of selected default values                                      
-   iomode0 =  0 , fftalg0 =312 , wfoptalg0 =  0
-
- outvars: echo of global parameters not present in the input file              
-  max_nthreads =    0
-
 -outvars: echo values of preprocessed input variables --------
            acell      1.0200000000E+00  1.0200000000E+00  1.0200000000E+00 Bohr
              amu      5.86900000E+01  1.20110000E+01  1.59994000E+01
        autoparal           1
           diemac      1.00000000E+00
           diemix      4.00000000E-01
             ecut      2.50000000E+02 Hartree
           ecutsm      5.00000000E-01 Hartree
-          fftalg         312
              ixc     -263267
              kpt      2.50000000E-01  2.50000000E-01  2.50000000E-01
                      -2.50000000E-01  2.50000000E-01  2.50000000E-01
                       2.50000000E-01 -2.50000000E-01  2.50000000E-01
                      -2.50000000E-01 -2.50000000E-01  2.50000000E-01
         kptrlatt        2    0    0      0    2    0      0    0    2
          kptrlen      1.96097108E+01
P           mkmem           1
            natom          14
            nband          65
            ngfft         150     144     180
             nkpt           4
-        np_spkpt           8
           nspden           2
           nsppol           2
            nstep          60
             nsym           1
           ntypat           3
              occ      1.000000  1.000000  1.000000  1.000000  1.000000  1.000000
                       1.000000  1.000000  1.000000  1.000000  1.000000  1.000000
                       1.000000  1.000000  1.000000  1.000000  1.000000  1.000000
                       1.000000  1.000000  1.000000  1.000000  1.000000  1.000000
                       1.000000  1.000000  1.000000  1.000000  1.000000  1.000000
                       1.000000  1.000000  1.000000  1.000000  1.000000  1.000000
                       1.000000  1.000000  1.000000  1.000000  1.000000  1.000000
                       1.000000  1.000000  1.000000  1.000000  1.000000  1.000000
                       1.000000  1.000000  0.000000  0.000000  0.000000  0.000000
                       0.000000  0.000000  0.000000  0.000000  0.000000  0.000000
                       0.000000  0.000000  0.000000  0.000000  0.000000
                       1.000000  1.000000  1.000000  1.000000  1.000000  1.000000
                       1.000000  1.000000  1.000000  1.000000  1.000000  1.000000
                       1.000000  1.000000  1.000000  1.000000  1.000000  1.000000
                       1.000000  1.000000  1.000000  1.000000  1.000000  1.000000
                       1.000000  1.000000  1.000000  1.000000  1.000000  1.000000
                       1.000000  1.000000  1.000000  1.000000  1.000000  1.000000
                       1.000000  1.000000  1.000000  1.000000  1.000000  1.000000
                       1.000000  1.000000  1.000000  1.000000  1.000000  1.000000
                       1.000000  1.000000  0.000000  0.000000  0.000000  0.000000
                       0.000000  0.000000  0.000000  0.000000  0.000000  0.000000
                       0.000000  0.000000  0.000000  0.000000  0.000000
                       1.000000  1.000000  1.000000  1.000000  1.000000  1.000000
                       1.000000  1.000000  1.000000  1.000000  1.000000  1.000000
                       1.000000  1.000000  1.000000  1.000000  1.000000  1.000000
                       1.000000  1.000000  1.000000  1.000000  1.000000  1.000000
                       1.000000  1.000000  1.000000  1.000000  1.000000  1.000000
                       1.000000  1.000000  1.000000  1.000000  1.000000  1.000000
                       1.000000  1.000000  1.000000  1.000000  1.000000  1.000000
                       1.000000  1.000000  1.000000  1.000000  1.000000  1.000000
                       1.000000  1.000000  0.000000  0.000000  0.000000  0.000000
                       0.000000  0.000000  0.000000  0.000000  0.000000  0.000000
                       0.000000  0.000000  0.000000  0.000000  0.000000
                       1.000000  1.000000  1.000000  1.000000  1.000000  1.000000
                       1.000000  1.000000  1.000000  1.000000  1.000000  1.000000
                       1.000000  1.000000  1.000000  1.000000  1.000000  1.000000
                       1.000000  1.000000  1.000000  1.000000  1.000000  1.000000
                       1.000000  1.000000  1.000000  1.000000  1.000000  1.000000
                       1.000000  1.000000  1.000000  1.000000  1.000000  1.000000
                       1.000000  1.000000  1.000000  1.000000  1.000000  1.000000
                       1.000000  1.000000  1.000000  1.000000  1.000000  1.000000
                       1.000000  1.000000  0.000000  0.000000  0.000000  0.000000
                       0.000000  0.000000  0.000000  0.000000  0.000000  0.000000
                       0.000000  0.000000  0.000000  0.000000  0.000000
                       1.000000  1.000000  1.000000  1.000000  1.000000  1.000000
                       1.000000  1.000000  1.000000  1.000000  1.000000  1.000000
                       1.000000  1.000000  1.000000  1.000000  1.000000  1.000000
                       1.000000  1.000000  1.000000  1.000000  1.000000  1.000000
                       1.000000  1.000000  1.000000  1.000000  1.000000  1.000000
                       1.000000  1.000000  1.000000  1.000000  1.000000  1.000000
                       1.000000  1.000000  1.000000  1.000000  1.000000  1.000000
                       1.000000  1.000000  1.000000  1.000000  1.000000  1.000000
                       1.000000  1.000000  0.000000  0.000000  0.000000  0.000000
                       0.000000  0.000000  0.000000  0.000000  0.000000  0.000000
                       0.000000  0.000000  0.000000  0.000000  0.000000
                       1.000000  1.000000  1.000000  1.000000  1.000000  1.000000
                       1.000000  1.000000  1.000000  1.000000  1.000000  1.000000
                       1.000000  1.000000  1.000000  1.000000  1.000000  1.000000
                       1.000000  1.000000  1.000000  1.000000  1.000000  1.000000
                       1.000000  1.000000  1.000000  1.000000  1.000000  1.000000
                       1.000000  1.000000  1.000000  1.000000  1.000000  1.000000
                       1.000000  1.000000  1.000000  1.000000  1.000000  1.000000
                       1.000000  1.000000  1.000000  1.000000  1.000000  1.000000
                       1.000000  1.000000  0.000000  0.000000  0.000000  0.000000
                       0.000000  0.000000  0.000000  0.000000  0.000000  0.000000
                       0.000000  0.000000  0.000000  0.000000  0.000000
                       1.000000  1.000000  1.000000  1.000000  1.000000  1.000000
                       1.000000  1.000000  1.000000  1.000000  1.000000  1.000000
                       1.000000  1.000000  1.000000  1.000000  1.000000  1.000000
                       1.000000  1.000000  1.000000  1.000000  1.000000  1.000000
                       1.000000  1.000000  1.000000  1.000000  1.000000  1.000000
                       1.000000  1.000000  1.000000  1.000000  1.000000  1.000000
                       1.000000  1.000000  1.000000  1.000000  1.000000  1.000000
                       1.000000  1.000000  1.000000  1.000000  1.000000  1.000000
                       1.000000  1.000000  0.000000  0.000000  0.000000  0.000000
                       0.000000  0.000000  0.000000  0.000000  0.000000  0.000000
                       0.000000  0.000000  0.000000  0.000000  0.000000
                       1.000000  1.000000  1.000000  1.000000  1.000000  1.000000
                       1.000000  1.000000  1.000000  1.000000  1.000000  1.000000
                       1.000000  1.000000  1.000000  1.000000  1.000000  1.000000
                       1.000000  1.000000  1.000000  1.000000  1.000000  1.000000
                       1.000000  1.000000  1.000000  1.000000  1.000000  1.000000
                       1.000000  1.000000  1.000000  1.000000  1.000000  1.000000
                       1.000000  1.000000  1.000000  1.000000  1.000000  1.000000
                       1.000000  1.000000  1.000000  1.000000  1.000000  1.000000
                       1.000000  1.000000  0.000000  0.000000  0.000000  0.000000
                       0.000000  0.000000  0.000000  0.000000  0.000000  0.000000
                       0.000000  0.000000  0.000000  0.000000  0.000000
           occopt           3
           prtden           0
           prteig           0
          prtkden           1
            prtwf           0
            rprim      0.0000000000E+00  1.0137047334E+01  0.0000000000E+00
                       9.6126033568E+00  0.0000000000E+00  0.0000000000E+00
                       0.0000000000E+00 -5.7455806104E+00 -9.8776109362E+00
           shiftk      5.00000000E-01  5.00000000E-01  5.00000000E-01
          spgroup           1
           spinat      0.0000000000E+00  0.0000000000E+00  1.0000000000E+00
                       0.0000000000E+00  0.0000000000E+00  1.0000000000E+00
                       0.0000000000E+00  0.0000000000E+00  1.0000000000E+00
                       0.0000000000E+00  0.0000000000E+00  1.0000000000E+00
                       0.0000000000E+00  0.0000000000E+00  1.0000000000E+00
                       0.0000000000E+00  0.0000000000E+00  1.0000000000E+00
                       0.0000000000E+00  0.0000000000E+00  1.0000000000E+00
                       0.0000000000E+00  0.0000000000E+00  1.0000000000E+00
                       0.0000000000E+00  0.0000000000E+00  1.0000000000E+00
                       0.0000000000E+00  0.0000000000E+00  1.0000000000E+00
                       0.0000000000E+00  0.0000000000E+00  1.0000000000E+00
                       0.0000000000E+00  0.0000000000E+00  1.0000000000E+00
                       0.0000000000E+00  0.0000000000E+00  1.0000000000E+00
                       0.0000000000E+00  0.0000000000E+00  1.0000000000E+00
           toldfe      1.00000000E-06 Hartree
           tsmear      1.00000000E-03 Hartree
            typat      1  1  2  2  2  2  3  3  3  3  3  3  3  3
          usekden           1
              wtk        0.25000    0.25000    0.25000    0.25000
           xangst      2.5942530119E+00 -1.5506194577E+00 -2.6657733572E+00
                       0.0000000000E+00  0.0000000000E+00  0.0000000000E+00
                       3.2194005372E+00  1.2148390360E+00 -2.1903540051E+00
                       6.2514752529E-01  2.7061218061E+00 -4.7541935207E-01
                       1.9691054866E+00  1.1555023484E+00 -3.1411927093E+00
                       4.5633584985E+00 -3.3578042168E-01 -4.8561273624E+00
                       1.5179181913E+00  2.2792626834E+00 -3.6177636754E+00
                       4.1121712032E+00 -1.4595407566E+00 -4.3795563962E+00
                       3.6705878325E+00  9.1078701062E-02 -1.7137830390E+00
                       1.0763348206E+00  3.8298821410E+00 -9.5199031824E-01
                       3.7132892371E+00  2.3791831717E+00 -1.9528335990E+00
                       1.1190362252E+00  1.5417776704E+00 -7.1293975820E-01
                       1.4752167867E+00 -8.8417872955E-03 -3.3787131154E+00
                       4.0694697986E+00  8.2856371406E-01 -4.6186069562E+00
            xcart      4.9024277119E+00 -2.9302461113E+00 -5.0375815775E+00
                       0.0000000000E+00  0.0000000000E+00  0.0000000000E+00
                       6.0837853274E+00  2.2957130736E+00 -4.1391692038E+00
                       1.1813576155E+00  5.1138290958E+00 -8.9841237369E-01
                       3.7210700965E+00  2.1835829845E+00 -5.9359939512E+00
                       8.6234978084E+00 -6.3453303775E-01 -9.1767507813E+00
                       2.8684496737E+00  4.3071822565E+00 -6.8365825601E+00
                       7.7708773856E+00 -2.7581323098E+00 -8.2761621723E+00
                       6.9364057502E+00  1.7211380155E-01 -3.2385805949E+00
                       2.0339780383E+00  7.2374283678E+00 -1.7990009826E+00
                       7.0170997103E+00  4.4960046145E+00 -3.6903206852E+00
                       2.1146719984E+00  2.9135375548E+00 -1.3472608922E+00
                       2.7877557135E+00 -1.6708556514E-02 -6.3848424697E+00
                       7.6901834255E+00  1.5657585032E+00 -8.7279022627E+00
             xred     -1.4221916658E-17  5.0000000000E-01  5.0000000000E-01
                       0.0000000000E+00  0.0000000000E+00  0.0000000000E+00
                       4.5488100000E-01  6.2048700000E-01  4.1082900000E-01
                       5.4511900000E-01  1.2048700000E-01  8.9171000000E-02
                       5.4511900000E-01  3.7951300000E-01  5.8917100000E-01
                       4.5488100000E-01  8.7951300000E-01  9.1082900000E-01
                       8.0116400000E-01  2.9255400000E-01  6.7855800000E-01
                       1.9883600000E-01  7.9255400000E-01  8.2144200000E-01
                       1.9883600000E-01  7.0744600000E-01  3.2144200000E-01
                       8.0116400000E-01  2.0744600000E-01  1.7855800000E-01
                       6.4242900000E-01  7.1567600000E-01  3.6627900000E-01
                       3.5757100000E-01  2.1567600000E-01  1.3372100000E-01
                       3.5757100000E-01  2.8432400000E-01  6.3372100000E-01
                       6.4242900000E-01  7.8432400000E-01  8.6627900000E-01
            znucl       28.00000    6.00000    8.00000

================================================================================

 chkinp: Checking input parameters for consistency.

================================================================================
== DATASET  1 ==================================================================
-   mpi_nproc: 8, omp_nthreads: -1 (-1 if OMP is not activated)


--- !DatasetInfo
iteration_state: {dtset: 1, }
dimensions: {natom: 14, nkpt: 4, mband: 65, nsppol: 2, nspinor: 1, nspden: 2, mpw: 192887, }
cutoff_energies: {ecut: 250.0, pawecutdg:  -1.0, }
electrons: {nelect:   1.00000000E+02, charge:   0.00000000E+00, occopt:   3.00000000E+00, tsmear:   1.00000000E-03, }
meta: {optdriver: 0, ionmov: 0, optcell: 0, iscf: 7, paral_kgb: 0, }
...

 Real(R)+Recip(G) space primitive vectors, cartesian coordinates (Bohr,Bohr^-1):
 R(1)=  0.0000000 10.3397883  0.0000000  G(1)=  0.0000000  0.0967138 -0.0562562
 R(2)=  9.8048554  0.0000000  0.0000000  G(2)=  0.1019903  0.0000000  0.0000000
 R(3)=  0.0000000 -5.8604922-10.0751632  G(3)=  0.0000000  0.0000000 -0.0992540
 Unit cell volume ucvol=  1.0214213E+03 bohr^3
 Angles (23,13,12)=  9.00000000E+01  1.20185586E+02  9.00000000E+01 degrees

 getcut: wavevector=  0.0000  0.0000  0.0000  ngfft= 150 144 180
         ecut(hartree)=    250.000   => boxcut(ratio)=   2.03824

--- Pseudopotential description ------------------------------------------------
- pspini: atom type   1  psp file is ../Ni.pot
- pspatm: opening atomic psp file    ../Ni.pot
- Ni    ONCVPSP-4.0.1  r_core=   2.18101   2.18101   2.24723
- 28.00000  18.00000    200312                znucl, zion, pspdat
    8   11    2    4       600   0.00000      pspcod,pspxc,lmax,lloc,mmax,r2well
    5.99000000000000    0.00000000000000    0.00000000000000   rchrg,fchrg,qchrg
     nproj     2     2     2
     extension_switch     1
  pspatm : epsatm=   38.47316822
         --- l  ekb(1:nproj) -->
             0   -3.440917   -0.196078
             1   -5.406223   -1.725842
             2   -7.274254   -2.503385
 pspatm: atomic psp has been read  and splines computed

- pspini: atom type   2  psp file is ../C.pot
- pspatm: opening atomic psp file    ../C.pot
- C     ONCVPSP-4.0.1  r_core=   1.42727   1.38521
-  6.00000   4.00000    200312                znucl, zion, pspdat
    8   11    1    4       600   0.00000      pspcod,pspxc,lmax,lloc,mmax,r2well
    5.99000000000000    0.00000000000000    0.00000000000000   rchrg,fchrg,qchrg
     nproj     2     2
     extension_switch     1
  pspatm : epsatm=    2.26998732
         --- l  ekb(1:nproj) -->
             0    7.571912    0.889574
             1   -3.169338   -0.856835
 pspatm: atomic psp has been read  and splines computed

- pspini: atom type   3  psp file is ../O.pot
- pspatm: opening atomic psp file    ../O.pot
- O     ONCVPSP-4.0.1  r_core=   1.28926   1.47061
-  8.00000   6.00000    200312                znucl, zion, pspdat
    8   11    1    4       600   0.00000      pspcod,pspxc,lmax,lloc,mmax,r2well
    5.99000000000000    0.00000000000000    0.00000000000000   rchrg,fchrg,qchrg
     nproj     2     2
     extension_switch     1
  pspatm : epsatm=    3.44365635
         --- l  ekb(1:nproj) -->
             0    9.802940    1.339963
             1   -3.661294   -1.085684
 pspatm: atomic psp has been read  and splines computed

   1.13575537E+04                                ecore*ucvol(ha*bohr**3)
--------------------------------------------------------------------------------

_setup2: Arith. and geom. avg. npw (full set) are  192862.500  192862.498

================================================================================

--- !BeginCycle
iteration_state: {dtset: 1, }
solver: {iscf: 7, nstep: 60, nline: 4, wfoptalg: 0, }
tolerances: {toldfe: 1.00E-06, }
...

     iter   Etot(hartree)     deltaE(h) residm    vres2    magn
 ETOT  1  -455.76303759092    -4.56E+02 3.65E-01 2.98E+05 1.923
 ETOT  2  -455.98395616318    -2.21E-01 1.41E-02 9.49E+05 4.000
 ETOT  3  -458.21657892471    -2.23E+00 2.49E-02 3.21E+05 2.951
 ETOT  4  -458.58865222585    -3.72E-01 7.37E-03 2.10E+05 2.777
 ETOT  5  -458.56031660414     2.83E-02 2.40E-03 2.22E+05 2.112
 ETOT  6  -458.69506474262    -1.35E-01 2.18E-03 1.61E+05 2.967
 ETOT  7  -458.82528554309    -1.30E-01 1.45E-03 1.25E+05 3.426
 ETOT  8  -458.88700938800    -6.17E-02 1.21E-03 1.12E+05 3.970
 ETOT  9  -458.89854762295    -1.15E-02 1.24E-03 1.05E+05 3.992
 ETOT 10  -459.10083167235    -2.02E-01 3.28E-03 4.35E+04 4.000
 ETOT 11  -459.10799378748    -7.16E-03 9.08E-04 2.85E+04 4.000
 ETOT 12  -459.10725267638     7.41E-04 6.40E-04 1.57E+04 4.000
 ETOT 13  -459.11007282043    -2.82E-03 4.60E-04 6.51E+03 4.000
 ETOT 14  -459.11084077054    -7.68E-04 2.69E-04 7.08E+03 4.000
 ETOT 15  -459.11069254507     1.48E-04 3.35E-04 5.71E+03 4.000
 ETOT 16  -459.11219791817    -1.51E-03 4.83E-04 1.22E+03 4.000
 ETOT 17  -459.11243648815    -2.39E-04 4.67E-04 2.86E+02 4.000
 ETOT 18  -459.11250136616    -6.49E-05 5.91E-04 8.81E+01 4.000
 ETOT 19  -459.11251856420    -1.72E-05 4.63E-04 2.75E+01 4.000
 ETOT 20  -459.11252504147    -6.48E-06 6.03E-04 1.02E+01 4.000
 ETOT 21  -459.11252783416    -2.79E-06 3.82E-04 5.33E+00 4.000
 ETOT 22  -459.11252988570    -2.05E-06 4.92E-04 2.45E+00 4.000
 ETOT 23  -459.11253095765    -1.07E-06 2.66E-04 1.56E+00 4.000
 ETOT 24  -459.11253178968    -8.32E-07 3.33E-04 7.52E-01 4.000
 ETOT 25  -459.11253232377    -5.34E-07 1.62E-04 2.16E-01 4.000

 At SCF step   25, etot is converged : 
  for the second time, diff in etot=  5.341E-07 < toldfe=  1.000E-06

Result for kinetic energy density :

--------------------------------------------------------------------------------
 Total kinetic energy density [Ha/Bohr^3]
      Maximum=    1.9585E+01  at reduced coord.    0.9867    0.5069    0.4889
      Minimum=    8.3126E-04  at reduced coord.    0.0000    0.5000    0.0000
   Integrated=    2.3592E+02
 Spin up density      [Ha/Bohr^3]
      Maximum=    1.0232E+01  at reduced coord.    0.0200    0.5208    0.5111
      Minimum=    4.1171E-04  at reduced coord.    0.0000    0.5000    0.0000
   Integrated=    1.2803E+02
 Spin down density    [Ha/Bohr^3]
      Maximum=    9.8429E+00  at reduced coord.    0.0000    0.0000    0.0000
      Minimum=    4.1955E-04  at reduced coord.    0.0000    0.5000    0.0000
   Integrated=    1.0789E+02
 Magnetization (spin up - spin down) [Ha/Bohr^3]
      Maximum=    2.9904E+00  at reduced coord.    0.9733    0.9792    0.0278
      Minimum=   -2.9243E-01  at reduced coord.    0.0000    0.0000    0.0000
   Integrated=    2.0139E+01
 Relative magnetization (=zeta, between -1 and 1)
      Maximum=    3.2223E-01  at reduced coord.    0.0800    0.8958    0.1222
      Minimum=   -2.0643E-02  at reduced coord.    0.8133    0.6111    0.2056
--------------------------------------------------------------------------------

 Cartesian components of stress tensor (hartree/bohr^3)
  sigma(1 1)=  1.25489247E-02  sigma(3 2)= -4.19433312E-05
  sigma(2 2)=  1.28375760E-02  sigma(3 1)=  1.32531620E-08
  sigma(3 3)=  1.24685386E-02  sigma(2 1)= -5.81298274E-09


--- !ResultsGS
iteration_state: {dtset: 1, }
comment   : Summary of ground state results
lattice_vectors:
- [  0.0000000,  10.3397883,   0.0000000, ]
- [  9.8048554,   0.0000000,   0.0000000, ]
- [  0.0000000,  -5.8604922, -10.0751632, ]
lattice_lengths: [  10.33979,    9.80486,   11.65565, ]
lattice_angles: [ 90.000, 120.186,  90.000, ] # degrees, (23, 13, 12)
lattice_volume:   1.0214213E+03
convergence: {deltae: -5.341E-07, res2:  2.155E-01, residm:  1.616E-04, diffor: null, }
etotal    :  -4.59112532E+02
entropy   :   0.00000000E+00
fermie    :   1.20934060E-01
cartesian_stress_tensor: # hartree/bohr^3
- [  1.25489247E-02,  -5.81298274E-09,   1.32531620E-08, ]
- [ -5.81298274E-09,   1.28375760E-02,  -4.19433312E-05, ]
- [  1.32531620E-08,  -4.19433312E-05,   1.24685386E-02, ]
pressure_GPa:  -3.7124E+02
xred      :
- [ -1.4222E-17,   5.0000E-01,   5.0000E-01, Ni]
- [  0.0000E+00,   0.0000E+00,   0.0000E+00, Ni]
- [  4.5488E-01,   6.2049E-01,   4.1083E-01,  C]
- [  5.4512E-01,   1.2049E-01,   8.9171E-02,  C]
- [  5.4512E-01,   3.7951E-01,   5.8917E-01,  C]
- [  4.5488E-01,   8.7951E-01,   9.1083E-01,  C]
- [  8.0116E-01,   2.9255E-01,   6.7856E-01,  O]
- [  1.9884E-01,   7.9255E-01,   8.2144E-01,  O]
- [  1.9884E-01,   7.0745E-01,   3.2144E-01,  O]
- [  8.0116E-01,   2.0745E-01,   1.7856E-01,  O]
- [  6.4243E-01,   7.1568E-01,   3.6628E-01,  O]
- [  3.5757E-01,   2.1568E-01,   1.3372E-01,  O]
- [  3.5757E-01,   2.8432E-01,   6.3372E-01,  O]
- [  6.4243E-01,   7.8432E-01,   8.6628E-01,  O]
cartesian_forces: # hartree/bohr
- [ -8.47310582E-06,   3.76239582E-05,  -2.74301650E-06, ]
- [ -4.04296954E-06,   3.33797074E-06,  -1.15936508E-05, ]
- [  1.46929393E-02,   7.74439461E-03,   1.09706324E-02, ]
- [  1.46804853E-02,  -7.74567987E-03,  -1.09599170E-02, ]
- [ -1.46962193E-02,  -7.79897126E-03,  -1.09672875E-02, ]
- [ -1.46779653E-02,   7.74296246E-03,   1.09602115E-02, ]
- [  1.59502383E-02,  -3.21801977E-02,   1.48416186E-02, ]
- [  1.59263041E-02,   3.21888850E-02,  -1.48320621E-02, ]
- [ -1.59536655E-02,   3.21898923E-02,  -1.48425308E-02, ]
- [ -1.59275215E-02,  -3.21950162E-02,   1.48319557E-02, ]
- [ -2.25875828E-02,  -3.63280677E-02,  -1.05441942E-02, ]
- [ -2.25862299E-02,   3.63323617E-02,   1.05344931E-02, ]
- [  2.26105026E-02,   3.63355417E-02,   1.05548020E-02, ]
- [  2.25812308E-02,  -3.63270670E-02,  -1.05333853E-02, ]
force_length_stats: {min:   1.27240084E-05, max:   4.40784557E-02, mean:   2.93827486E-02, }
...

 Integrated electronic and magnetization densities in atomic spheres:
 ---------------------------------------------------------------------
 Radius=ratsph(iatom), smearing ratsm=  0.0000. Diff(up-dn)=approximate z local magnetic moment.
 Atom    Radius    up_density   dn_density  Total(up+dn)  Diff(up-dn)
    1   2.00000     8.870229     7.144204     16.014433     1.726025
    2   2.00000     8.870230     7.144140     16.014370     1.726090
    3   2.00000     2.634002     2.619510      5.253512     0.014492
    4   2.00000     2.633982     2.619506      5.253488     0.014476
    5   2.00000     2.634006     2.619515      5.253521     0.014491
    6   2.00000     2.633983     2.619496      5.253479     0.014488
    7   2.00000     3.287200     3.201444      6.488644     0.085756
    8   2.00000     3.287171     3.201422      6.488593     0.085749
    9   2.00000     3.287163     3.201403      6.488566     0.085759
   10   2.00000     3.287174     3.201421      6.488595     0.085754
   11   2.00000     3.290549     3.241939      6.532488     0.048610
   12   2.00000     3.290560     3.241931      6.532491     0.048629
   13   2.00000     3.290499     3.241884      6.532383     0.048615
   14   2.00000     3.290565     3.241941      6.532506     0.048624
 ---------------------------------------------------------------------
  Sum:             54.587314    50.539755    105.127069     4.047560
 Total magnetization (from the atomic spheres):             4.047560
 Total magnetization (exact up - dn):                       4.000000
================================================================================

 ----iterations are completed or convergence reached----

 Mean square residual over all n,k,spin=   33.940E-08; max=  16.161E-05
 reduced coordinates (array xred) for   14 atoms
      -0.000000000000      0.500000000000      0.500000000000
       0.000000000000      0.000000000000      0.000000000000
       0.454881000000      0.620487000000      0.410829000000
       0.545119000000      0.120487000000      0.089171000000
       0.545119000000      0.379513000000      0.589171000000
       0.454881000000      0.879513000000      0.910829000000
       0.801164000000      0.292554000000      0.678558000000
       0.198836000000      0.792554000000      0.821442000000
       0.198836000000      0.707446000000      0.321442000000
       0.801164000000      0.207446000000      0.178558000000
       0.642429000000      0.715676000000      0.366279000000
       0.357571000000      0.215676000000      0.133721000000
       0.357571000000      0.284324000000      0.633721000000
       0.642429000000      0.784324000000      0.866279000000
 rms dE/dt=  2.1386E-01; max dE/dt=  3.7563E-01; dE/dt below (all hartree)
    1      -0.000384508182      0.000083419057      0.000190793024
    2      -0.000029998330      0.000039982211     -0.000099311323
    3      -0.080070885018     -0.144061803734      0.155914810058
    4       0.080093205516     -0.143939694587     -0.155818513909
    5       0.080644227210      0.144094646682     -0.156205086584
    6      -0.080056076953      0.143915669235      0.155801425215
    7       0.332740946871     -0.156389439441     -0.039062135016
    8      -0.332821740317     -0.156154767837      0.039205199563
    9      -0.332832155088      0.156423725661      0.039105628509
   10       0.332894166285      0.156167387472     -0.039246333231
   11       0.375629043911      0.221468325309     -0.319136900464
   12      -0.375664412373      0.221455060080      0.319060194478
   13      -0.375697292205     -0.221692367524      0.319283446252
   14       0.375618696798     -0.221405361880     -0.319022134297

 cartesian coordinates (angstrom) at end:
    1      2.59425301192183    -1.55061945766695    -2.66577335721449
    2      0.00000000000000     0.00000000000000     0.00000000000000
    3      3.21940053721668     1.21483903599168    -2.19035400514214
    4      0.62514752529485     2.70612180611074    -0.47541935207235
    5      1.96910548662698     1.15550234844379    -3.14119270928684
    6      4.56335849854881    -0.33578042167527    -4.85612736235663
    7      1.51791819129956     2.27926268337329    -3.61776367544950
    8      4.11217120322139    -1.45954075660477    -4.37955639619397
    9      3.67058783254410     0.09107870106218    -1.71378303897948
   10      1.07633482062227     3.82988214104024    -0.95199031823501
   11      3.71328923712034     2.37918317173095    -1.95283359901433
   12      1.11903622519851     1.54177767037147    -0.71293975820016
   13      1.47521678672332    -0.00884178729548    -3.37871311541465
   14      4.06946979864516     0.82856371406400    -4.61860695622882

 cartesian forces (hartree/bohr) at end:
    1     -0.00000847310582     0.00003762395823    -0.00000274301650
    2     -0.00000404296954     0.00000333797074    -0.00001159365078
    3      0.01469293926165     0.00774439460700     0.01097063239041
    4      0.01468048531498    -0.00774567986906    -0.01095991697874
    5     -0.01469621926821    -0.00779897125943    -0.01096728746943
    6     -0.01467796530744     0.00774296246311     0.01096021153933
    7      0.01595023834198    -0.03218019772351     0.01484161861370
    8      0.01592630411816     0.03218888500067    -0.01483206205081
    9     -0.01595366554831     0.03218989225252    -0.01484253076922
   10     -0.01592752154332    -0.03219501615208     0.01483195574995
   11     -0.02258758281033    -0.03632806766778    -0.01054419419799
   12     -0.02258622988584     0.03633236172313     0.01053449309848
   13      0.02261050259477     0.03633554165594     0.01055480203033
   14      0.02258123080726    -0.03632706695947    -0.01053338528872
 frms,max,avg= 1.9143168E-02 3.6335542E-02  -3.483E-08 -4.367E-07  4.902E-08 h/b

 cartesian forces (eV/Angstrom) at end:
    1     -0.00043570458303     0.00193470155756    -0.00014105156767
    2     -0.00020789783504     0.00017164534246    -0.00059616944280
    3      0.75554125119199     0.39823274886647     0.56413255203809
    4      0.75490084355943    -0.39829883969357    -0.56358154346236
    5     -0.75570991589684    -0.40103919293674    -0.56396054930021
    6     -0.75477125957246     0.39815910507304     0.56359669037545
    7      0.82019416395221    -1.65477216087666     0.76318665022851
    8      0.81896341678282     1.65521887859176    -0.76269523204788
    9     -0.82037039797259     1.65527067356015    -0.76323355514737
   10     -0.81902601929606    -1.65553415504714     0.76268976583806
   11     -1.16150011063227    -1.86806419126414    -0.54220422036016
   12     -1.16143054046353     1.86828500044953     0.54170536980792
   13      1.16267869323619     1.86844851915544     0.54274969698522
   14      1.16117347752918    -1.86801273277817    -0.54164840394479
 frms,max,avg= 9.8438117E-01 1.8684485E+00  -1.791E-06 -2.246E-05  2.520E-06 e/A
 length scales=  1.020000000000  1.020000000000  1.020000000000 bohr
              =  0.539760752762  0.539760752762  0.539760752762 angstroms
 Fermi (or HOMO) energy (hartree) =   0.12093   Average Vxc (hartree)=  -0.39511
 Magnetization (Bohr magneton)=  4.00000000E+00
 Total spin up =  5.20000000E+01   Total spin down =  4.80000000E+01
 Eigenvalues (hartree) for nkpt=   4  k points, SPIN UP:
 kpt#   1, nband= 65, wtk=  0.25000, kpt=  0.2500  0.2500  0.2500 (reduced coord)
  -3.89057   -3.89057   -2.41536   -2.41536   -2.41485   -2.41485   -2.40890   -2.40889
  -0.79072   -0.78301   -0.75880   -0.75785   -0.71069   -0.70734   -0.69044   -0.68935
  -0.36367   -0.34664   -0.24741   -0.24269   -0.22494   -0.22204   -0.19372   -0.18779
  -0.17504   -0.16717   -0.15320   -0.14225   -0.11311   -0.10695   -0.09782   -0.08942
  -0.08335   -0.07875   -0.06769   -0.05061   -0.04823   -0.03913   -0.03806   -0.03104
  -0.01839   -0.01474   -0.01409   -0.01031   -0.00073    0.00357    0.00951    0.01402
   0.01654    0.02636    0.03904    0.04535    0.18767    0.20132    0.31105    0.31538
   0.32842    0.34982    0.40233    0.40498    0.43139    0.45982    0.47722    0.49132
   0.50267
      occupation numbers for kpt#   1
   1.00000    1.00000    1.00000    1.00000    1.00000    1.00000    1.00000    1.00000
   1.00000    1.00000    1.00000    1.00000    1.00000    1.00000    1.00000    1.00000
   1.00000    1.00000    1.00000    1.00000    1.00000    1.00000    1.00000    1.00000
   1.00000    1.00000    1.00000    1.00000    1.00000    1.00000    1.00000    1.00000
   1.00000    1.00000    1.00000    1.00000    1.00000    1.00000    1.00000    1.00000
   1.00000    1.00000    1.00000    1.00000    1.00000    1.00000    1.00000    1.00000
   1.00000    1.00000    1.00000    1.00000    0.00000    0.00000    0.00000    0.00000
   0.00000    0.00000    0.00000    0.00000    0.00000    0.00000    0.00000    0.00000
   0.00000
 prteigrs : prtvol=0 or 1, do not print more k-points.

 Eigenvalues (hartree) for nkpt=   4  k points, SPIN DOWN:
 kpt#   1, nband= 65, wtk=  0.25000, kpt=  0.2500  0.2500  0.2500 (reduced coord)
  -3.80973   -3.80973   -2.30035   -2.30035   -2.29873   -2.29873   -2.29626   -2.29624
  -0.78723   -0.77937   -0.75469   -0.75371   -0.70612   -0.70250   -0.68531   -0.68433
  -0.36136   -0.34417   -0.24106   -0.23558   -0.21806   -0.21582   -0.18856   -0.18124
  -0.17123   -0.15785   -0.14700   -0.13562   -0.11001   -0.08774   -0.07159   -0.06339
  -0.05042   -0.04698   -0.03965   -0.03264   -0.01876   -0.01727   -0.01113   -0.00512
   0.00026    0.00861    0.02127    0.02749    0.03103    0.03485    0.03613    0.03895
   0.15178    0.15992    0.17089    0.17807    0.19154    0.20365    0.31154    0.32609
   0.33100    0.36082    0.40718    0.41181    0.43646    0.46603    0.48088    0.49602
   0.50902
      occupation numbers for kpt#   1
   1.00000    1.00000    1.00000    1.00000    1.00000    1.00000    1.00000    1.00000
   1.00000    1.00000    1.00000    1.00000    1.00000    1.00000    1.00000    1.00000
   1.00000    1.00000    1.00000    1.00000    1.00000    1.00000    1.00000    1.00000
   1.00000    1.00000    1.00000    1.00000    1.00000    1.00000    1.00000    1.00000
   1.00000    1.00000    1.00000    1.00000    1.00000    1.00000    1.00000    1.00000
   1.00000    1.00000    1.00000    1.00000    1.00000    1.00000    1.00000    1.00000
   0.00000    0.00000    0.00000    0.00000    0.00000    0.00000    0.00000    0.00000
   0.00000    0.00000    0.00000    0.00000    0.00000    0.00000    0.00000    0.00000
   0.00000
 prteigrs : prtvol=0 or 1, do not print more k-points.


--- !EnergyTerms
iteration_state     : {dtset: 1, }
comment             : Components of total free energy in Hartree
kinetic             :  2.35922445586562E+02
hartree             :  1.71522611315958E+02
xc                  : -6.51377299275478E+01
Ewald energy        : -2.60852346619253E+02
psp_core            :  1.11193619933565E+01
local_psp           : -4.41563461573084E+02
non_local_psp       : -1.10123413099758E+02
internal            : -4.59112532323765E+02
'-kT*entropy'       :  3.41026828480038E-15
total_energy        : -4.59112532323765E+02
total_energy_eV     : -1.24930873519986E+04
band_energy         : -6.17738597228324E+01
...


 Cartesian components of stress tensor (hartree/bohr^3)
  sigma(1 1)=  1.25489247E-02  sigma(3 2)= -4.19433312E-05
  sigma(2 2)=  1.28375760E-02  sigma(3 1)=  1.32531620E-08
  sigma(3 3)=  1.24685386E-02  sigma(2 1)= -5.81298274E-09

-Cartesian components of stress tensor (GPa)         [Pressure= -3.7124E+02 GPa]
- sigma(1 1)=  3.69202048E+02  sigma(3 2)= -1.23401520E+00
- sigma(2 2)=  3.77694461E+02  sigma(3 1)=  3.89921422E-04
- sigma(3 3)=  3.66837009E+02  sigma(2 1)= -1.71023828E-04

== END DATASET(S) ==============================================================
================================================================================
  
 -outvars: echo values of variables after computation  --------
            acell      1.0200000000E+00  1.0200000000E+00  1.0200000000E+00 Bohr
              amu      5.86900000E+01  1.20110000E+01  1.59994000E+01
        autoparal           1
           diemac      1.00000000E+00
           diemix      4.00000000E-01
             ecut      2.50000000E+02 Hartree
           ecutsm      5.00000000E-01 Hartree
           etotal     -4.5911253232E+02
            fcart     -8.4731058223E-06  3.7623958228E-05 -2.7430164975E-06
                      -4.0429695374E-06  3.3379707426E-06 -1.1593650775E-05
                       1.4692939262E-02  7.7443946070E-03  1.0970632390E-02
                       1.4680485315E-02 -7.7456798691E-03 -1.0959916979E-02
                      -1.4696219268E-02 -7.7989712594E-03 -1.0967287469E-02
                      -1.4677965307E-02  7.7429624631E-03  1.0960211539E-02
                       1.5950238342E-02 -3.2180197724E-02  1.4841618614E-02
                       1.5926304118E-02  3.2188885001E-02 -1.4832062051E-02
                      -1.5953665548E-02  3.2189892253E-02 -1.4842530769E-02
                      -1.5927521543E-02 -3.2195016152E-02  1.4831955750E-02
                      -2.2587582810E-02 -3.6328067668E-02 -1.0544194198E-02
                      -2.2586229886E-02  3.6332361723E-02  1.0534493098E-02
                       2.2610502595E-02  3.6335541656E-02  1.0554802030E-02
                       2.2581230807E-02 -3.6327066959E-02 -1.0533385289E-02
-          fftalg         312
              ixc     -263267
              kpt      2.50000000E-01  2.50000000E-01  2.50000000E-01
                      -2.50000000E-01  2.50000000E-01  2.50000000E-01
                       2.50000000E-01 -2.50000000E-01  2.50000000E-01
                      -2.50000000E-01 -2.50000000E-01  2.50000000E-01
         kptrlatt        2    0    0      0    2    0      0    0    2
          kptrlen      1.96097108E+01
P           mkmem           1
            natom          14
            nband          65
            ngfft         150     144     180
             nkpt           4
-        np_spkpt           8
           nspden           2
           nsppol           2
            nstep          60
             nsym           1
           ntypat           3
              occ      1.000000  1.000000  1.000000  1.000000  1.000000  1.000000
                       1.000000  1.000000  1.000000  1.000000  1.000000  1.000000
                       1.000000  1.000000  1.000000  1.000000  1.000000  1.000000
                       1.000000  1.000000  1.000000  1.000000  1.000000  1.000000
                       1.000000  1.000000  1.000000  1.000000  1.000000  1.000000
                       1.000000  1.000000  1.000000  1.000000  1.000000  1.000000
                       1.000000  1.000000  1.000000  1.000000  1.000000  1.000000
                       1.000000  1.000000  1.000000  1.000000  1.000000  1.000000
                       1.000000  1.000000  1.000000  1.000000  0.000000  0.000000
                       0.000000  0.000000  0.000000  0.000000  0.000000  0.000000
                       0.000000  0.000000  0.000000  0.000000  0.000000
                       1.000000  1.000000  1.000000  1.000000  1.000000  1.000000
                       1.000000  1.000000  1.000000  1.000000  1.000000  1.000000
                       1.000000  1.000000  1.000000  1.000000  1.000000  1.000000
                       1.000000  1.000000  1.000000  1.000000  1.000000  1.000000
                       1.000000  1.000000  1.000000  1.000000  1.000000  1.000000
                       1.000000  1.000000  1.000000  1.000000  1.000000  1.000000
                       1.000000  1.000000  1.000000  1.000000  1.000000  1.000000
                       1.000000  1.000000  1.000000  1.000000  1.000000  1.000000
                       1.000000  1.000000  1.000000  1.000000  0.000000  0.000000
                       0.000000  0.000000  0.000000  0.000000  0.000000  0.000000
                       0.000000  0.000000  0.000000  0.000000  0.000000
                       1.000000  1.000000  1.000000  1.000000  1.000000  1.000000
                       1.000000  1.000000  1.000000  1.000000  1.000000  1.000000
                       1.000000  1.000000  1.000000  1.000000  1.000000  1.000000
                       1.000000  1.000000  1.000000  1.000000  1.000000  1.000000
                       1.000000  1.000000  1.000000  1.000000  1.000000  1.000000
                       1.000000  1.000000  1.000000  1.000000  1.000000  1.000000
                       1.000000  1.000000  1.000000  1.000000  1.000000  1.000000
                       1.000000  1.000000  1.000000  1.000000  1.000000  1.000000
                       1.000000  1.000000  1.000000  1.000000  0.000000  0.000000
                       0.000000  0.000000  0.000000  0.000000  0.000000  0.000000
                       0.000000  0.000000  0.000000  0.000000  0.000000
                       1.000000  1.000000  1.000000  1.000000  1.000000  1.000000
                       1.000000  1.000000  1.000000  1.000000  1.000000  1.000000
                       1.000000  1.000000  1.000000  1.000000  1.000000  1.000000
                       1.000000  1.000000  1.000000  1.000000  1.000000  1.000000
                       1.000000  1.000000  1.000000  1.000000  1.000000  1.000000
                       1.000000  1.000000  1.000000  1.000000  1.000000  1.000000
                       1.000000  1.000000  1.000000  1.000000  1.000000  1.000000
                       1.000000  1.000000  1.000000  1.000000  1.000000  1.000000
                       1.000000  1.000000  1.000000  1.000000  0.000000  0.000000
                       0.000000  0.000000  0.000000  0.000000  0.000000  0.000000
                       0.000000  0.000000  0.000000  0.000000  0.000000
                       1.000000  1.000000  1.000000  1.000000  1.000000  1.000000
                       1.000000  1.000000  1.000000  1.000000  1.000000  1.000000
                       1.000000  1.000000  1.000000  1.000000  1.000000  1.000000
                       1.000000  1.000000  1.000000  1.000000  1.000000  1.000000
                       1.000000  1.000000  1.000000  1.000000  1.000000  1.000000
                       1.000000  1.000000  1.000000  1.000000  1.000000  1.000000
                       1.000000  1.000000  1.000000  1.000000  1.000000  1.000000
                       1.000000  1.000000  1.000000  1.000000  1.000000  1.000000
                       0.000000  0.000000  0.000000  0.000000  0.000000  0.000000
                       0.000000  0.000000  0.000000  0.000000  0.000000  0.000000
                       0.000000  0.000000  0.000000  0.000000  0.000000
                       1.000000  1.000000  1.000000  1.000000  1.000000  1.000000
                       1.000000  1.000000  1.000000  1.000000  1.000000  1.000000
                       1.000000  1.000000  1.000000  1.000000  1.000000  1.000000
                       1.000000  1.000000  1.000000  1.000000  1.000000  1.000000
                       1.000000  1.000000  1.000000  1.000000  1.000000  1.000000
                       1.000000  1.000000  1.000000  1.000000  1.000000  1.000000
                       1.000000  1.000000  1.000000  1.000000  1.000000  1.000000
                       1.000000  1.000000  1.000000  1.000000  1.000000  1.000000
                       0.000000  0.000000  0.000000  0.000000  0.000000  0.000000
                       0.000000  0.000000  0.000000  0.000000  0.000000  0.000000
                       0.000000  0.000000  0.000000  0.000000  0.000000
                       1.000000  1.000000  1.000000  1.000000  1.000000  1.000000
                       1.000000  1.000000  1.000000  1.000000  1.000000  1.000000
                       1.000000  1.000000  1.000000  1.000000  1.000000  1.000000
                       1.000000  1.000000  1.000000  1.000000  1.000000  1.000000
                       1.000000  1.000000  1.000000  1.000000  1.000000  1.000000
                       1.000000  1.000000  1.000000  1.000000  1.000000  1.000000
                       1.000000  1.000000  1.000000  1.000000  1.000000  1.000000
                       1.000000  1.000000  1.000000  1.000000  1.000000  1.000000
                       0.000000  0.000000  0.000000  0.000000  0.000000  0.000000
                       0.000000  0.000000  0.000000  0.000000  0.000000  0.000000
                       0.000000  0.000000  0.000000  0.000000  0.000000
                       1.000000  1.000000  1.000000  1.000000  1.000000  1.000000
                       1.000000  1.000000  1.000000  1.000000  1.000000  1.000000
                       1.000000  1.000000  1.000000  1.000000  1.000000  1.000000
                       1.000000  1.000000  1.000000  1.000000  1.000000  1.000000
                       1.000000  1.000000  1.000000  1.000000  1.000000  1.000000
                       1.000000  1.000000  1.000000  1.000000  1.000000  1.000000
                       1.000000  1.000000  1.000000  1.000000  1.000000  1.000000
                       1.000000  1.000000  1.000000  1.000000  1.000000  1.000000
                       0.000000  0.000000  0.000000  0.000000  0.000000  0.000000
                       0.000000  0.000000  0.000000  0.000000  0.000000  0.000000
                       0.000000  0.000000  0.000000  0.000000  0.000000
           occopt           3
           prtden           0
           prteig           0
          prtkden           1
            prtwf           0
            rprim      0.0000000000E+00  1.0137047334E+01  0.0000000000E+00
                       9.6126033568E+00  0.0000000000E+00  0.0000000000E+00
                       0.0000000000E+00 -5.7455806104E+00 -9.8776109362E+00
           shiftk      5.00000000E-01  5.00000000E-01  5.00000000E-01
          spgroup           1
           spinat      0.0000000000E+00  0.0000000000E+00  1.0000000000E+00
                       0.0000000000E+00  0.0000000000E+00  1.0000000000E+00
                       0.0000000000E+00  0.0000000000E+00  1.0000000000E+00
                       0.0000000000E+00  0.0000000000E+00  1.0000000000E+00
                       0.0000000000E+00  0.0000000000E+00  1.0000000000E+00
                       0.0000000000E+00  0.0000000000E+00  1.0000000000E+00
                       0.0000000000E+00  0.0000000000E+00  1.0000000000E+00
                       0.0000000000E+00  0.0000000000E+00  1.0000000000E+00
                       0.0000000000E+00  0.0000000000E+00  1.0000000000E+00
                       0.0000000000E+00  0.0000000000E+00  1.0000000000E+00
                       0.0000000000E+00  0.0000000000E+00  1.0000000000E+00
                       0.0000000000E+00  0.0000000000E+00  1.0000000000E+00
                       0.0000000000E+00  0.0000000000E+00  1.0000000000E+00
                       0.0000000000E+00  0.0000000000E+00  1.0000000000E+00
           strten      1.2548924675E-02  1.2837575973E-02  1.2468538619E-02
                      -4.1943331211E-05  1.3253161988E-08 -5.8129827404E-09
           toldfe      1.00000000E-06 Hartree
           tsmear      1.00000000E-03 Hartree
            typat      1  1  2  2  2  2  3  3  3  3  3  3  3  3
          usekden           1
              wtk        0.25000    0.25000    0.25000    0.25000
           xangst      2.5942530119E+00 -1.5506194577E+00 -2.6657733572E+00
                       0.0000000000E+00  0.0000000000E+00  0.0000000000E+00
                       3.2194005372E+00  1.2148390360E+00 -2.1903540051E+00
                       6.2514752529E-01  2.7061218061E+00 -4.7541935207E-01
                       1.9691054866E+00  1.1555023484E+00 -3.1411927093E+00
                       4.5633584985E+00 -3.3578042168E-01 -4.8561273624E+00
                       1.5179181913E+00  2.2792626834E+00 -3.6177636754E+00
                       4.1121712032E+00 -1.4595407566E+00 -4.3795563962E+00
                       3.6705878325E+00  9.1078701062E-02 -1.7137830390E+00
                       1.0763348206E+00  3.8298821410E+00 -9.5199031824E-01
                       3.7132892371E+00  2.3791831717E+00 -1.9528335990E+00
                       1.1190362252E+00  1.5417776704E+00 -7.1293975820E-01
                       1.4752167867E+00 -8.8417872955E-03 -3.3787131154E+00
                       4.0694697986E+00  8.2856371406E-01 -4.6186069562E+00
            xcart      4.9024277119E+00 -2.9302461113E+00 -5.0375815775E+00
                       0.0000000000E+00  0.0000000000E+00  0.0000000000E+00
                       6.0837853274E+00  2.2957130736E+00 -4.1391692038E+00
                       1.1813576155E+00  5.1138290958E+00 -8.9841237369E-01
                       3.7210700965E+00  2.1835829845E+00 -5.9359939512E+00
                       8.6234978084E+00 -6.3453303775E-01 -9.1767507813E+00
                       2.8684496737E+00  4.3071822565E+00 -6.8365825601E+00
                       7.7708773856E+00 -2.7581323098E+00 -8.2761621723E+00
                       6.9364057502E+00  1.7211380155E-01 -3.2385805949E+00
                       2.0339780383E+00  7.2374283678E+00 -1.7990009826E+00
                       7.0170997103E+00  4.4960046145E+00 -3.6903206852E+00
                       2.1146719984E+00  2.9135375548E+00 -1.3472608922E+00
                       2.7877557135E+00 -1.6708556514E-02 -6.3848424697E+00
                       7.6901834255E+00  1.5657585032E+00 -8.7279022627E+00
             xred     -1.4221916658E-17  5.0000000000E-01  5.0000000000E-01
                       0.0000000000E+00  0.0000000000E+00  0.0000000000E+00
                       4.5488100000E-01  6.2048700000E-01  4.1082900000E-01
                       5.4511900000E-01  1.2048700000E-01  8.9171000000E-02
                       5.4511900000E-01  3.7951300000E-01  5.8917100000E-01
                       4.5488100000E-01  8.7951300000E-01  9.1082900000E-01
                       8.0116400000E-01  2.9255400000E-01  6.7855800000E-01
                       1.9883600000E-01  7.9255400000E-01  8.2144200000E-01
                       1.9883600000E-01  7.0744600000E-01  3.2144200000E-01
                       8.0116400000E-01  2.0744600000E-01  1.7855800000E-01
                       6.4242900000E-01  7.1567600000E-01  3.6627900000E-01
                       3.5757100000E-01  2.1567600000E-01  1.3372100000E-01
                       3.5757100000E-01  2.8432400000E-01  6.3372100000E-01
                       6.4242900000E-01  7.8432400000E-01  8.6627900000E-01
            znucl       28.00000    6.00000    8.00000

================================================================================


- Timing analysis has been suppressed with timopt=0



================================================================================

 Suggested references for the acknowledgment of ABINIT usage.

 The users of ABINIT have little formal obligations with respect to the ABINIT group
 (those specified in the GNU General Public License, http://www.gnu.org/copyleft/gpl.txt).
 However, it is common practice in the scientific literature,
 to acknowledge the efforts of people that have made the research possible.
 In this spirit, please find below suggested citations of work written by ABINIT developers,
 corresponding to implementations inside of ABINIT that you have used in the present run.
 Note also that it will be of great value to readers of publications presenting these results,
 to read papers enabling them to understand the theoretical formalism and details
 of the ABINIT implementation.
 For information on why they are suggested, see also https://docs.abinit.org/theory/acknowledgments.
-
- [1] Libxc: A library of exchange and correlation functionals for density functional theory.
- M.A.L. Marques, M.J.T. Oliveira, T. Burnus, Computer Physics Communications 183, 2227 (2012).
- Comment: to be cited when LibXC is used (negative value of ixc)
- Strong suggestion to cite this paper.
- DOI and bibtex: see https://docs.abinit.org/theory/bibliography/#marques2012
-
- [2] The Abinit project: Impact, environment and recent developments.
- Computer Phys. Comm. 248, 107042 (2020).
- X.Gonze, B. Amadon, G. Antonius, F.Arnardi, L.Baguet, J.-M.Beuken,
- J.Bieder, F.Bottin, J.Bouchet, E.Bousquet, N.Brouwer, F.Bruneval,
- G.Brunin, T.Cavignac, J.-B. Charraud, Wei Chen, M.Cote, S.Cottenier,
- J.Denier, G.Geneste, Ph.Ghosez, M.Giantomassi, Y.Gillet, O.Gingras,
- D.R.Hamann, G.Hautier, Xu He, N.Helbig, N.Holzwarth, Y.Jia, F.Jollet,
- W.Lafargue-Dit-Hauret, K.Lejaeghere, M.A.L.Marques, A.Martin, C.Martins,
- H.P.C. Miranda, F.Naccarato, K. Persson, G.Petretto, V.Planes, Y.Pouillon,
- S.Prokhorenko, F.Ricci, G.-M.Rignanese, A.H.Romero, M.M.Schmitt, M.Torrent,
- M.J.van Setten, B.Van Troeye, M.J.Verstraete, G.Zerah and J.W.Zwanzig
- Comment: the fifth generic paper describing the ABINIT project.
- Note that a version of this paper, that is not formatted for Computer Phys. Comm. 
- is available at https://www.abinit.org/sites/default/files/ABINIT20.pdf .
- The licence allows the authors to put it on the Web.
- DOI and bibtex: see https://docs.abinit.org/theory/bibliography/#gonze2020
-
- [3] Optimized norm-conserving Vanderbilt pseudopotentials.
- D.R. Hamann, Phys. Rev. B 88, 085117 (2013).
- Comment: Some pseudopotential generated using the ONCVPSP code were used.
- DOI and bibtex: see https://docs.abinit.org/theory/bibliography/#hamann2013
-
- [4] ABINIT: Overview, and focus on selected capabilities
- J. Chem. Phys. 152, 124102 (2020).
- A. Romero, D.C. Allan, B. Amadon, G. Antonius, T. Applencourt, L.Baguet,
- J.Bieder, F.Bottin, J.Bouchet, E.Bousquet, F.Bruneval,
- G.Brunin, D.Caliste, M.Cote,
- J.Denier, C. Dreyer, Ph.Ghosez, M.Giantomassi, Y.Gillet, O.Gingras,
- D.R.Hamann, G.Hautier, F.Jollet, G. Jomard,
- A.Martin, 
- H.P.C. Miranda, F.Naccarato, G.Petretto, N.A. Pike, V.Planes,
- S.Prokhorenko, T. Rangel, F.Ricci, G.-M.Rignanese, M.Royo, M.Stengel, M.Torrent,
- M.J.van Setten, B.Van Troeye, M.J.Verstraete, J.Wiktor, J.W.Zwanziger, and X.Gonze.
- Comment: a global overview of ABINIT, with focus on selected capabilities .
- Note that a version of this paper, that is not formatted for J. Chem. Phys 
- is available at https://www.abinit.org/sites/default/files/ABINIT20_JPC.pdf .
- The licence allows the authors to put it on the Web.
- DOI and bibtex: see https://docs.abinit.org/theory/bibliography/#romero2020
-
- [5] Recent developments in the ABINIT software package.
- Computer Phys. Comm. 205, 106 (2016).
- X.Gonze, F.Jollet, F.Abreu Araujo, D.Adams, B.Amadon, T.Applencourt,
- C.Audouze, J.-M.Beuken, J.Bieder, A.Bokhanchuk, E.Bousquet, F.Bruneval
- D.Caliste, M.Cote, F.Dahm, F.Da Pieve, M.Delaveau, M.Di Gennaro,
- B.Dorado, C.Espejo, G.Geneste, L.Genovese, A.Gerossier, M.Giantomassi,
- Y.Gillet, D.R.Hamann, L.He, G.Jomard, J.Laflamme Janssen, S.Le Roux,
- A.Levitt, A.Lherbier, F.Liu, I.Lukacevic, A.Martin, C.Martins,
- M.J.T.Oliveira, S.Ponce, Y.Pouillon, T.Rangel, G.-M.Rignanese,
- A.H.Romero, B.Rousseau, O.Rubel, A.A.Shukri, M.Stankovski, M.Torrent,
- M.J.Van Setten, B.Van Troeye, M.J.Verstraete, D.Waroquier, J.Wiktor,
- B.Xu, A.Zhou, J.W.Zwanziger.
- Comment: the fourth generic paper describing the ABINIT project.
- Note that a version of this paper, that is not formatted for Computer Phys. Comm. 
- is available at https://www.abinit.org/sites/default/files/ABINIT16.pdf .
- The licence allows the authors to put it on the Web.
- DOI and bibtex: see https://docs.abinit.org/theory/bibliography/#gonze2016
-
- Proc.   0 individual time (sec): cpu=       6762.3  wall=       6791.7

================================================================================

 Calculation completed.
.Delivered   0 WARNINGs and   0 COMMENTs to log file.
+Overall time at end (sec) : cpu=      54166.1  wall=      54334.4
