
     Program PWSCF v.7.0 starts on 24Feb2023 at 10:46: 2 

     This program is part of the open-source Quantum ESPRESSO suite
     for quantum simulation of materials; please cite
         "P. Giannozzi et al., J. Phys.:Condens. Matter 21 395502 (2009);
         "P. Giannozzi et al., J. Phys.:Condens. Matter 29 465901 (2017);
         "P. Giannozzi et al., J. Chem. Phys. 152 154105 (2020);
          URL http://www.quantum-espresso.org", 
     in publications or presentations arising from this work. More details at
     http://www.quantum-espresso.org/quote

     Parallel version (MPI), running on   600 processors

     MPI processes distributed on    50 nodes
     R & G space division:  proc/nbgrp/npool/nimage =     600
     178477 MiB available memory on the printing compute node when the environment starts

     Reading input from pw.inp
Warning: card &CELL ignored
Warning: card / ignored

     Current dimensions of program PWSCF are:
     Max number of different atomic species (ntypx) = 10
     Max number of k-points (npk) =  40000
     Max angular momentum in pseudopotentials (lmaxx) =  4
     Message from routine cell_base_init:
     DEPRECATED: use true lattice parameter, not A to a.u. conversion factor

     IMPORTANT: XC functional enforced from input :
     Exchange-correlation= HSE
                           (   1   4  12   4   0   0   0)
     EXX-fraction              =        0.25
     Any further DFT definition will be discarded
     Please, verify this is what you really want

     Message from routine setup :
     BEWARE: nonlinear core correction is not consistent with hybrid XC
     Found identity + (  0.0000 -0.5000  0.0000) symmetry
     This is a supercell, fractional translations are disabled
     EXX: q-point mesh:     2    2    1
     EXX: setup a grid of 4 q-points centered on each k-point
     (k+q)-points:
   0.0142664   0.0222913   0.0000000         1    1
   0.0142664  -0.0222913   0.0000000         2    1
  -0.0142664   0.0222913   0.0000000         2   -1
  -0.0142664  -0.0222913  -0.0000000         1   -1

     Subspace diagonalization in iterative solution of the eigenvalue problem:
     one sub-group per band group will be used
     scalapack distributed-memory algorithm (size of sub-group: 24* 24 procs)


     Parallelization info
     --------------------
     sticks:   dense  smooth     PW     G-vecs:    dense   smooth      PW
     Min           8       8      2                 1408     1408     176
     Max           9       9      3                 1447     1447     203
     Sum        4993    4993   1303               854265   854265  112889

     Using Pencil Decomposition



     bravais-lattice index     =            0
     lattice parameter (alat)  =       1.0000  a.u.
     unit-cell volume          =    8840.2240 (a.u.)^3
     number of atoms/cell      =           96
     number of atomic types    =            2
     number of electrons       =       768.00
     number of Kohn-Sham states=          461
     kinetic-energy cutoff     =      80.0000  Ry
     charge density cutoff     =     320.0000  Ry
     cutoff for Fock operator  =     320.0000  Ry
     scf convergence threshold =      1.0E-02
     mixing beta               =       0.3000
     number of iterations used =            8  TF        mixing
     Exchange-correlation= HSE
                           (   1   4  12   4   0   0   0)
     EXX-fraction              =        0.25

     celldm(1)=   1.000000  celldm(2)=   0.000000  celldm(3)=   0.000000
     celldm(4)=   0.000000  celldm(5)=   0.000000  celldm(6)=   0.000000

     crystal axes: (cart. coord. in units of alat)
               a(1) = (  17.523698   0.000000   0.000000 )  
               a(2) = (   0.000000  11.215115   0.000000 )  
               a(3) = (   0.000000   0.000000  44.981483 )  

     reciprocal axes: (cart. coord. in units 2 pi/alat)
               b(1) = (  0.057066  0.000000  0.000000 )  
               b(2) = (  0.000000  0.089165  0.000000 )  
               b(3) = (  0.000000  0.000000  0.022231 )  


     PseudoPot. # 1 for O  read from file:
     .././08_O_6_1.2_1.4_pbe_n_v1.0.upf
     MD5 check sum: a8b7f44dbbd6106bf79c6036dc5c6a43
     Pseudo is Norm-conserving + core correction, Zval =  6.0
     Generated using ONCVPSP code by D. R. Hamann
     Using radial grid of  934 points,  5 beta functions with: 
                l(1) =   0
                l(2) =   0
                l(3) =   1
                l(4) =   1
                l(5) =   2

     PseudoPot. # 2 for Ti read from file:
     .././22_Ti_12_2.0_2.8_pbe_n_v1.0.upf
     MD5 check sum: 5292e08a1afa329970694609a7514cd4
     Pseudo is Norm-conserving + core correction, Zval = 12.0
     Generated using ONCVPSP code by D. R. Hamann
     Using radial grid of 1584 points,  6 beta functions with: 
                l(1) =   0
                l(2) =   0
                l(3) =   1
                l(4) =   1
                l(5) =   2
                l(6) =   2

     atomic species   valence    mass     pseudopotential
        O              6.00    15.99900     O ( 1.00)
        Ti            12.00    47.86700     Ti( 1.00)

     No symmetry found



   Cartesian axes

     site n.     atom                  positions (alat units)
         1           O   tau(   1) = (   2.6719896   0.0000000   9.8295544  )
         2           O   tau(   2) = (   6.0898595   0.0000000  13.2473047  )
         3           O   tau(   3) = (   7.0529141   2.8037788   8.8663793  )
         4           O   tau(   4) = (   1.7089351   2.8037788   5.4486306  )
         5           O   tau(   5) = (   2.6719896   0.0000000  18.5914035  )
         6           O   tau(   6) = (   6.0898595   0.0000000  22.0091537  )
         7           O   tau(   7) = (   7.0529141   2.8037788  17.6282284  )
         8           O   tau(   8) = (   1.7089351   2.8037788  14.2104797  )
         9           O   tau(   9) = (   2.6719896   0.0000000  27.3532526  )
        10           O   tau(  10) = (   6.0898595   0.0000000  30.7710028  )
        11           O   tau(  11) = (   7.0529141   2.8037788  26.3900774  )
        12           O   tau(  12) = (   1.7089351   2.8037788  22.9723288  )
        13           O   tau(  13) = (   2.6719896   0.0000000  36.1151017  )
        14           O   tau(  14) = (   6.0898595   0.0000000  39.5328519  )
        15           O   tau(  15) = (   7.0529141   2.8037788  35.1519265  )
        16           O   tau(  16) = (   1.7089351   2.8037788  31.7341779  )
        17           O   tau(  17) = (   2.6719896   5.6075576   9.8295544  )
        18           O   tau(  18) = (   6.0898595   5.6075576  13.2473047  )
        19           O   tau(  19) = (   7.0529141   8.4113364   8.8663793  )
        20           O   tau(  20) = (   1.7089351   8.4113364   5.4486306  )
        21           O   tau(  21) = (   2.6719896   5.6075576  18.5914035  )
        22           O   tau(  22) = (   6.0898595   5.6075576  22.0091537  )
        23           O   tau(  23) = (   7.0529141   8.4113364  17.6282284  )
        24           O   tau(  24) = (   1.7089351   8.4113364  14.2104797  )
        25           O   tau(  25) = (   2.6719896   5.6075576  27.3532526  )
        26           O   tau(  26) = (   6.0898595   5.6075576  30.7710028  )
        27           O   tau(  27) = (   7.0529141   8.4113364  26.3900774  )
        28           O   tau(  28) = (   1.7089351   8.4113364  22.9723288  )
        29           O   tau(  29) = (   2.6719896   5.6075576  36.1151017  )
        30           O   tau(  30) = (   6.0898595   5.6075576  39.5328519  )
        31           O   tau(  31) = (   7.0529141   8.4113364  35.1519265  )
        32           O   tau(  32) = (   1.7089351   8.4113364  31.7341779  )
        33           O   tau(  33) = (  11.4338387   0.0000000   9.8295544  )
        34           O   tau(  34) = (  14.8517086   0.0000000  13.2473047  )
        35           O   tau(  35) = (  15.8147632   2.8037788   8.8663793  )
        36           O   tau(  36) = (  10.4707842   2.8037788   5.4486306  )
        37           O   tau(  37) = (  11.4338387   0.0000000  18.5914035  )
        38           O   tau(  38) = (  14.8517086   0.0000000  22.0091537  )
        39           O   tau(  39) = (  15.8147632   2.8037788  17.6282284  )
        40           O   tau(  40) = (  10.4707842   2.8037788  14.2104797  )
        41           O   tau(  41) = (  11.4338387   0.0000000  27.3532526  )
        42           O   tau(  42) = (  14.8517086   0.0000000  30.7710028  )
        43           O   tau(  43) = (  15.8147632   2.8037788  26.3900774  )
        44           O   tau(  44) = (  10.4707842   2.8037788  22.9723288  )
        45           O   tau(  45) = (  11.4338387   0.0000000  36.1151017  )
        46           O   tau(  46) = (  14.8517086   0.0000000  39.5328519  )
        47           O   tau(  47) = (  15.8147632   2.8037788  35.1519265  )
        48           O   tau(  48) = (  10.4707842   2.8037788  31.7341779  )
        49           O   tau(  49) = (  11.4338387   5.6075576   9.8295544  )
        50           O   tau(  50) = (  14.8517086   5.6075576  13.2473047  )
        51           O   tau(  51) = (  15.8147632   8.4113364   8.8663793  )
        52           O   tau(  52) = (  10.4707842   8.4113364   5.4486306  )
        53           O   tau(  53) = (  11.4338387   5.6075576  18.5914035  )
        54           O   tau(  54) = (  14.8517086   5.6075576  22.0091537  )
        55           O   tau(  55) = (  15.8147632   8.4113364  17.6282284  )
        56           O   tau(  56) = (  10.4707842   8.4113364  14.2104797  )
        57           O   tau(  57) = (  11.4338387   5.6075576  27.3532526  )
        58           O   tau(  58) = (  14.8517086   5.6075576  30.7710028  )
        59           O   tau(  59) = (  15.8147632   8.4113364  26.3900774  )
        60           O   tau(  60) = (  10.4707842   8.4113364  22.9723288  )
        61           O   tau(  61) = (  11.4338387   5.6075576  36.1151017  )
        62           O   tau(  62) = (  14.8517086   5.6075576  39.5328519  )
        63           O   tau(  63) = (  15.8147632   8.4113364  35.1519265  )
        64           O   tau(  64) = (  10.4707842   8.4113364  31.7341779  )
        65           Ti  tau(  65) = (   0.0000000   0.0000000   7.1575050  )
        66           Ti  tau(  66) = (   4.3809245   2.8037788  11.5384296  )
        67           Ti  tau(  67) = (   0.0000000   0.0000000  15.9193541  )
        68           Ti  tau(  68) = (   4.3809245   2.8037788  20.3002787  )
        69           Ti  tau(  69) = (   0.0000000   0.0000000  24.6812032  )
        70           Ti  tau(  70) = (   4.3809245   2.8037788  29.0621278  )
        71           Ti  tau(  71) = (   0.0000000   0.0000000  33.4430523  )
        72           Ti  tau(  72) = (   4.3809245   2.8037788  37.8239769  )
        73           Ti  tau(  73) = (   0.0000000   5.6075576   7.1575050  )
        74           Ti  tau(  74) = (   4.3809245   8.4113364  11.5384296  )
        75           Ti  tau(  75) = (   0.0000000   5.6075576  15.9193541  )
        76           Ti  tau(  76) = (   4.3809245   8.4113364  20.3002787  )
        77           Ti  tau(  77) = (   0.0000000   5.6075576  24.6812032  )
        78           Ti  tau(  78) = (   4.3809245   8.4113364  29.0621278  )
        79           Ti  tau(  79) = (   0.0000000   5.6075576  33.4430523  )
        80           Ti  tau(  80) = (   4.3809245   8.4113364  37.8239769  )
        81           Ti  tau(  81) = (   8.7618491   0.0000000   7.1575050  )
        82           Ti  tau(  82) = (  13.1427735   2.8037788  11.5384296  )
        83           Ti  tau(  83) = (   8.7618491   0.0000000  15.9193541  )
        84           Ti  tau(  84) = (  13.1427735   2.8037788  20.3002787  )
        85           Ti  tau(  85) = (   8.7618491   0.0000000  24.6812032  )
        86           Ti  tau(  86) = (  13.1427735   2.8037788  29.0621278  )
        87           Ti  tau(  87) = (   8.7618491   0.0000000  33.4430523  )
        88           Ti  tau(  88) = (  13.1427735   2.8037788  37.8239769  )
        89           Ti  tau(  89) = (   8.7618491   5.6075576   7.1575050  )
        90           Ti  tau(  90) = (  13.1427735   8.4113364  11.5384296  )
        91           Ti  tau(  91) = (   8.7618491   5.6075576  15.9193541  )
        92           Ti  tau(  92) = (  13.1427735   8.4113364  20.3002787  )
        93           Ti  tau(  93) = (   8.7618491   5.6075576  24.6812032  )
        94           Ti  tau(  94) = (  13.1427735   8.4113364  29.0621278  )
        95           Ti  tau(  95) = (   8.7618491   5.6075576  33.4430523  )
        96           Ti  tau(  96) = (  13.1427735   8.4113364  37.8239769  )

     number of k points=     2  Gaussian smearing, width (Ry)=  0.0037
                       cart. coord. in units 2pi/alat
        k(    1) = (   0.0142664   0.0222913   0.0000000), wk =   1.0000000
        k(    2) = (   0.0142664  -0.0222913   0.0000000), wk =   1.0000000

     Dense  grid:   854265 G-vectors     FFT dimensions: ( 100,  64, 270)

     Estimated max dynamical RAM per process >     161.45 MB

     Estimated total dynamical RAM >      94.60 GB

     Initial potential from superposition of free atoms

     starting charge     767.9490, renormalised to     768.0000
     Starting wfcs are  576 randomized atomic wfcs

     total cpu time spent up to now is        3.5 secs

     per-process dynamical memory:   192.5 Mb

     Self-consistent Calculation

     iteration #  1     ecut=    80.00 Ry     beta= 0.30
     Davidson diagonalization with overlap
     ethr =  1.00E-02,  avg # of iterations =  2.0

     total cpu time spent up to now is        9.1 secs

     total energy              =   -5880.52877671 Ry
     estimated scf accuracy    <      47.37773069 Ry

     iteration #  2     ecut=    80.00 Ry     beta= 0.30
     Davidson diagonalization with overlap
     ethr =  6.17E-03,  avg # of iterations =  1.0

     total cpu time spent up to now is       13.2 secs

     total energy              =   -5876.56085954 Ry
     estimated scf accuracy    <      14.40971119 Ry

     iteration #  3     ecut=    80.00 Ry     beta= 0.30
     Davidson diagonalization with overlap
     ethr =  1.88E-03,  avg # of iterations =  5.5

     total cpu time spent up to now is       20.7 secs

     total energy              =   -5880.60349324 Ry
     estimated scf accuracy    <       8.35173484 Ry

     iteration #  4     ecut=    80.00 Ry     beta= 0.30
     Davidson diagonalization with overlap
     ethr =  1.09E-03,  avg # of iterations =  2.0

     total cpu time spent up to now is       25.2 secs

     total energy              =   -5881.21681157 Ry
     estimated scf accuracy    <       1.21198134 Ry

     iteration #  5     ecut=    80.00 Ry     beta= 0.30
     Davidson diagonalization with overlap
     ethr =  1.58E-04,  avg # of iterations =  5.0

     total cpu time spent up to now is       32.6 secs

     total energy              =   -5881.50438528 Ry
     estimated scf accuracy    <       1.30684438 Ry

     iteration #  6     ecut=    80.00 Ry     beta= 0.30
     Davidson diagonalization with overlap
     ethr =  1.58E-04,  avg # of iterations =  1.5

     total cpu time spent up to now is       37.1 secs

     total energy              =   -5881.55918234 Ry
     estimated scf accuracy    <       0.31594750 Ry

     iteration #  7     ecut=    80.00 Ry     beta= 0.30
     Davidson diagonalization with overlap
     c_bands:  4 eigenvalues not converged
     ethr =  4.11E-05,  avg # of iterations = 11.0

     total cpu time spent up to now is       44.1 secs

     total energy              =   -5881.59100695 Ry
     estimated scf accuracy    <       0.19077898 Ry

     iteration #  8     ecut=    80.00 Ry     beta= 0.30
     Davidson diagonalization with overlap
     ethr =  2.48E-05,  avg # of iterations =  2.0

     total cpu time spent up to now is       48.7 secs

     total energy              =   -5881.59535003 Ry
     estimated scf accuracy    <       0.18489004 Ry

     iteration #  9     ecut=    80.00 Ry     beta= 0.30
     Davidson diagonalization with overlap
     ethr =  2.41E-05,  avg # of iterations =  1.0

     total cpu time spent up to now is       52.7 secs

     total energy              =   -5881.58404942 Ry
     estimated scf accuracy    <       0.16494957 Ry

     iteration # 10     ecut=    80.00 Ry     beta= 0.30
     Davidson diagonalization with overlap
     ethr =  2.15E-05,  avg # of iterations =  2.0

     total cpu time spent up to now is       56.5 secs

     total energy              =   -5881.59723358 Ry
     estimated scf accuracy    <       0.12817076 Ry

     iteration # 11     ecut=    80.00 Ry     beta= 0.30
     Davidson diagonalization with overlap
     c_bands:  1 eigenvalues not converged
     ethr =  1.67E-05,  avg # of iterations = 11.0

     negative rho (up, down):  4.248E-04 0.000E+00

     total cpu time spent up to now is       62.3 secs

     total energy              =   -5881.58694267 Ry
     estimated scf accuracy    <       0.13148029 Ry

     iteration # 12     ecut=    80.00 Ry     beta= 0.30
     Davidson diagonalization with overlap
     ethr =  1.67E-05,  avg # of iterations =  2.0

     negative rho (up, down):  4.222E-02 0.000E+00

     total cpu time spent up to now is       66.1 secs

     total energy              =   -5881.59134072 Ry
     estimated scf accuracy    <       0.08558595 Ry

     iteration # 13     ecut=    80.00 Ry     beta= 0.30
     Davidson diagonalization with overlap
     ethr =  1.11E-05,  avg # of iterations =  9.5

     negative rho (up, down):  5.199E-02 0.000E+00

     total cpu time spent up to now is       71.1 secs

     total energy              =   -5881.54174425 Ry
     estimated scf accuracy    <       0.10015504 Ry

     iteration # 14     ecut=    80.00 Ry     beta= 0.30
     Davidson diagonalization with overlap
     c_bands:  1 eigenvalues not converged
     c_bands:  3 eigenvalues not converged
     ethr =  1.11E-05,  avg # of iterations = 20.0

     negative rho (up, down):  1.629E-02 0.000E+00

     total cpu time spent up to now is       83.9 secs

     total energy              =   -5881.53204944 Ry
     estimated scf accuracy    <       0.37562894 Ry

     iteration # 15     ecut=    80.00 Ry     beta= 0.30
     Davidson diagonalization with overlap
     ethr =  1.11E-05,  avg # of iterations =  5.0

     negative rho (up, down):  4.848E-03 0.000E+00

     total cpu time spent up to now is       89.9 secs

     total energy              =   -5881.57871483 Ry
     estimated scf accuracy    <       0.02591542 Ry

     iteration # 16     ecut=    80.00 Ry     beta= 0.30
     Davidson diagonalization with overlap
     c_bands:  1 eigenvalues not converged
     c_bands:  2 eigenvalues not converged
     ethr =  3.37E-06,  avg # of iterations = 20.0

     negative rho (up, down):  4.847E-03 0.000E+00

     total cpu time spent up to now is       98.4 secs

     total energy              =   -5881.57836362 Ry
     estimated scf accuracy    <       0.02026810 Ry

     iteration # 17     ecut=    80.00 Ry     beta= 0.30
     Davidson diagonalization with overlap
     c_bands:  2 eigenvalues not converged
     c_bands:  2 eigenvalues not converged
     ethr =  2.64E-06,  avg # of iterations = 20.0

     negative rho (up, down):  9.137E-03 0.000E+00

     total cpu time spent up to now is      106.8 secs

     total energy              =   -5881.57734398 Ry
     estimated scf accuracy    <       0.01649011 Ry

     iteration # 18     ecut=    80.00 Ry     beta= 0.30
     Davidson diagonalization with overlap
     ethr =  2.15E-06,  avg # of iterations =  8.0

     total cpu time spent up to now is      112.3 secs

     End of self-consistent calculation

          k = 0.0143 0.0223 0.0000 (106809 PWs)   bands (ev):

   -51.5906 -51.5885 -51.5859 -51.5841 -51.5613 -51.5604 -51.5593 -51.5585
   -51.5344 -51.5343 -51.5342 -51.5339 -51.5072 -51.5071 -51.5069 -51.5066
   -51.4891 -51.4890 -51.4890 -51.4883 -51.4618 -51.4618 -51.4617 -51.4611
   -51.2343 -51.2342 -51.2331 -51.2316 -51.2073 -51.2072 -51.2062 -51.2046
   -28.0843 -28.0828 -28.0809 -28.0800 -28.0239 -28.0236 -28.0234 -28.0231
   -27.9945 -27.9944 -27.9944 -27.9938 -27.8900 -27.8895 -27.8848 -27.8842
   -27.8367 -27.8350 -27.8346 -27.8311 -27.8029 -27.8020 -27.8005 -27.7993
   -27.7984 -27.7979 -27.7970 -27.7950 -27.7793 -27.7781 -27.7774 -27.7768
   -27.7737 -27.7729 -27.7727 -27.7717 -27.7689 -27.7635 -27.7625 -27.7594
   -27.7352 -27.7347 -27.7345 -27.7340 -27.7290 -27.7286 -27.7265 -27.7264
   -27.7263 -27.7261 -27.7257 -27.7253 -27.7151 -27.7149 -27.7145 -27.7141
   -27.6881 -27.6880 -27.6878 -27.6874 -27.6846 -27.6844 -27.6837 -27.6833
   -27.6823 -27.6820 -27.6815 -27.6811 -27.6730 -27.6728 -27.6727 -27.6721
   -27.5956 -27.5953 -27.5941 -27.5927 -27.5885 -27.5885 -27.5874 -27.5862
   -27.5784 -27.5782 -27.5771 -27.5757 -27.4185 -27.4179 -27.4174 -27.4161
   -27.3521 -27.3514 -27.3509 -27.3496 -27.2957 -27.2957 -27.2945 -27.2932
   -12.4475 -12.2716 -12.1254 -12.0849 -12.0317 -11.9524 -11.8606 -11.8516
   -11.7449 -11.6767 -11.6696 -11.6380 -11.6282 -11.6162 -11.5755 -11.5635
   -11.5064 -11.4973 -11.4889 -11.4879 -11.4404 -11.4382 -11.4374 -11.4136
   -11.3965 -11.3609 -11.3275 -11.3272 -11.3056 -11.3055 -11.2992 -11.2811
   -11.2057 -11.2031 -11.2009 -11.1710 -11.1480 -11.1292 -11.1231 -11.1228
   -11.1208 -11.0997 -11.0721 -11.0691 -11.0566 -11.0510 -11.0460 -11.0451
   -11.0414 -11.0344 -11.0163 -11.0111 -11.0105 -11.0100 -10.9732 -10.9532
   -10.0134 -10.0116  -9.9998  -9.9981  -9.9702  -9.9683  -9.9628  -9.9609
     0.0334   0.1563   0.1578   0.1850   0.3844   0.3941   0.3987   0.4547
     0.5864   0.6188   0.6522   0.6549   0.6606   0.6710   0.7427   0.7438
     0.7439   0.8015   0.8515   0.8560   0.8913   0.9371   0.9446   0.9642
     0.9866   1.0102   1.0671   1.0721   1.1201   1.1260   1.1268   1.1287
     1.1320   1.1322   1.1450   1.1632   1.1648   1.1741   1.2083   1.2106
     1.2325   1.2737   1.2745   1.2886   1.3015   1.3152   1.3417   1.3550
     1.3783   1.3890   1.4137   1.4141   1.4452   1.4605   1.4833   1.5384
     1.5417   1.6044   1.6123   1.6350   1.6363   1.6625   1.7694   1.8431
     1.8677   1.9315   1.9470   1.9657   2.0184   2.0604   2.1473   2.1550
     2.1964   2.2019   2.2184   2.2391   2.2521   2.2950   2.3342   2.3392
     2.3626   2.3718   2.4514   2.4599   2.5657   2.5925   2.5969   2.6169
     2.6795   2.6819   2.7342   2.7422   2.7540   2.7932   2.7964   2.8271
     2.8471   2.8907   2.9122   2.9239   2.9279   2.9344   2.9542   3.0181
     3.0226   3.0497   3.0580   3.0805   3.0831   3.0854   3.0958   3.1277
     3.1598   3.1688   3.1836   3.2013   3.2073   3.2790   3.3327   3.3357
     3.3520   3.3851   3.4165   3.4166   3.4357   3.4698   3.5085   3.5114
     3.5351   3.6234   3.6333   3.6367   3.6506   3.6566   3.6652   3.7217
     3.7477   3.7625   3.7737   3.7760   3.7779   3.8036   3.8248   3.8554
     3.8989   3.9281   3.9572   3.9770   3.9824   3.9851   4.0501   4.0553
     4.0948   4.1165   4.1202   4.1679   4.2200   4.2442   4.2568   4.2945
     4.2956   4.3202   4.3204   4.3548   4.3767   4.4152   4.4209   4.4460
     4.4881   4.4993   4.5280   4.5377   4.5516   4.5812   4.6135   4.6229
     4.6232   4.6283   4.6347   4.7689   4.7838   4.8595   4.8897   4.9009
     4.9549   4.9577   4.9640   4.9653   5.0041   5.0938   5.1290   5.1768
     7.4011   7.4389   7.4889   7.5230   7.5732   7.5815   7.5980   7.6063
     7.6368   7.6486   7.6783   7.7380   7.7766   7.7821   7.8032   7.8130
     7.8317   7.8524   7.8935   7.9087   7.9298   7.9554   7.9667   7.9773
     7.9874   8.0290   8.0359   8.0742   8.1055   8.1318   8.1346   8.1370
     8.1466   8.1687   8.1792   8.2304   8.2454   8.2501   8.2535   8.2682
     8.3005   8.3486   8.3549   8.3760   8.3918   8.3985   8.4026   8.4346
     8.4405   8.4499   8.4618   8.4697   8.5081   8.5334   8.5489   8.5715
     8.5723   8.5754   8.5836   8.5967   8.6011   8.6063   8.6076   8.6195
     8.6271   8.6277   8.6932   8.7969   8.8049   8.8101   8.8148   8.8338
     8.8418   8.9308   8.9362   8.9645   8.9721

          k = 0.0143-0.0223 0.0000 (106809 PWs)   bands (ev):

   -51.5906 -51.5885 -51.5859 -51.5841 -51.5613 -51.5604 -51.5593 -51.5585
   -51.5344 -51.5343 -51.5342 -51.5339 -51.5072 -51.5071 -51.5069 -51.5066
   -51.4891 -51.4890 -51.4890 -51.4883 -51.4618 -51.4618 -51.4617 -51.4611
   -51.2343 -51.2342 -51.2331 -51.2316 -51.2073 -51.2072 -51.2062 -51.2046
   -28.0843 -28.0829 -28.0809 -28.0800 -28.0239 -28.0236 -28.0234 -28.0231
   -27.9945 -27.9944 -27.9944 -27.9938 -27.8900 -27.8895 -27.8848 -27.8842
   -27.8367 -27.8350 -27.8346 -27.8311 -27.8029 -27.8020 -27.8005 -27.7993
   -27.7984 -27.7979 -27.7970 -27.7950 -27.7793 -27.7780 -27.7774 -27.7768
   -27.7737 -27.7729 -27.7727 -27.7717 -27.7688 -27.7636 -27.7624 -27.7594
   -27.7352 -27.7347 -27.7345 -27.7340 -27.7290 -27.7286 -27.7265 -27.7264
   -27.7263 -27.7261 -27.7257 -27.7253 -27.7151 -27.7149 -27.7145 -27.7140
   -27.6881 -27.6880 -27.6878 -27.6874 -27.6847 -27.6843 -27.6837 -27.6834
   -27.6823 -27.6819 -27.6815 -27.6811 -27.6730 -27.6728 -27.6727 -27.6721
   -27.5956 -27.5953 -27.5941 -27.5927 -27.5885 -27.5885 -27.5874 -27.5862
   -27.5784 -27.5782 -27.5771 -27.5757 -27.4185 -27.4179 -27.4174 -27.4161
   -27.3521 -27.3514 -27.3509 -27.3496 -27.2957 -27.2957 -27.2945 -27.2932
   -12.4475 -12.2716 -12.1254 -12.0849 -12.0317 -11.9524 -11.8606 -11.8516
   -11.7449 -11.6767 -11.6696 -11.6380 -11.6282 -11.6162 -11.5755 -11.5635
   -11.5064 -11.4973 -11.4889 -11.4879 -11.4404 -11.4382 -11.4374 -11.4136
   -11.3965 -11.3609 -11.3275 -11.3272 -11.3056 -11.3055 -11.2992 -11.2811
   -11.2057 -11.2031 -11.2009 -11.1710 -11.1480 -11.1292 -11.1232 -11.1228
   -11.1208 -11.0997 -11.0721 -11.0691 -11.0566 -11.0510 -11.0460 -11.0451
   -11.0414 -11.0344 -11.0163 -11.0111 -11.0105 -11.0100 -10.9732 -10.9532
   -10.0134 -10.0116  -9.9998  -9.9981  -9.9702  -9.9683  -9.9628  -9.9609
     0.0334   0.1563   0.1578   0.1850   0.3844   0.3941   0.3987   0.4547
     0.5864   0.6188   0.6522   0.6549   0.6605   0.6709   0.7427   0.7438
     0.7439   0.8015   0.8515   0.8560   0.8913   0.9372   0.9446   0.9642
     0.9866   1.0102   1.0671   1.0721   1.1201   1.1260   1.1267   1.1287
     1.1320   1.1322   1.1450   1.1632   1.1648   1.1741   1.2083   1.2105
     1.2325   1.2737   1.2745   1.2886   1.3015   1.3152   1.3417   1.3550
     1.3783   1.3890   1.4137   1.4140   1.4452   1.4605   1.4833   1.5384
     1.5417   1.6044   1.6124   1.6350   1.6363   1.6625   1.7694   1.8430
     1.8676   1.9315   1.9470   1.9657   2.0184   2.0603   2.1473   2.1550
     2.1964   2.2019   2.2184   2.2392   2.2520   2.2950   2.3342   2.3392
     2.3626   2.3718   2.4514   2.4599   2.5657   2.5925   2.5969   2.6169
     2.6795   2.6819   2.7342   2.7422   2.7540   2.7932   2.7963   2.8271
     2.8471   2.8907   2.9122   2.9239   2.9278   2.9344   2.9542   3.0181
     3.0226   3.0496   3.0580   3.0805   3.0831   3.0854   3.0958   3.1277
     3.1598   3.1688   3.1836   3.2013   3.2073   3.2790   3.3326   3.3357
     3.3520   3.3851   3.4165   3.4165   3.4357   3.4698   3.5085   3.5114
     3.5351   3.6234   3.6333   3.6367   3.6506   3.6566   3.6652   3.7217
     3.7476   3.7625   3.7737   3.7760   3.7780   3.8036   3.8248   3.8554
     3.8990   3.9281   3.9572   3.9770   3.9824   3.9851   4.0502   4.0553
     4.0948   4.1165   4.1201   4.1679   4.2200   4.2442   4.2568   4.2945
     4.2956   4.3202   4.3204   4.3548   4.3767   4.4152   4.4208   4.4460
     4.4881   4.4993   4.5280   4.5377   4.5516   4.5812   4.6135   4.6229
     4.6232   4.6283   4.6347   4.7689   4.7838   4.8595   4.8896   4.9009
     4.9550   4.9578   4.9641   4.9654   5.0041   5.0937   5.1290   5.1768
     7.4011   7.4389   7.4889   7.5231   7.5733   7.5814   7.5979   7.6063
     7.6368   7.6486   7.6784   7.7381   7.7765   7.7821   7.8032   7.8129
     7.8317   7.8524   7.8936   7.9087   7.9298   7.9554   7.9667   7.9773
     7.9874   8.0289   8.0359   8.0742   8.1056   8.1317   8.1346   8.1371
     8.1466   8.1686   8.1792   8.2305   8.2454   8.2502   8.2535   8.2683
     8.3005   8.3486   8.3550   8.3760   8.3919   8.3985   8.4025   8.4345
     8.4405   8.4500   8.4618   8.4696   8.5083   8.5334   8.5488   8.5716
     8.5724   8.5754   8.5836   8.5968   8.6011   8.6067   8.6076   8.6200
     8.6275   8.6278   8.6932   8.7994   8.8048   8.8106   8.8134   8.8371
     8.8422   8.9357   8.9359   8.9633   8.9714

     the Fermi energy is     5.6244 ev

!    total energy              =   -5881.57687884 Ry
     estimated scf accuracy    <       0.00702546 Ry
     smearing contrib. (-TS)   =      -0.00000000 Ry
     internal energy E=F+TS    =   -5881.57687884 Ry

     convergence has been achieved in  18 iterations

     Using ACE for calculation of exact exchange

     EXX grid:   854265 G-vectors     FFT dimensions: ( 100,  64, 270)

     EXX: now go back to refine exchange calculation

     total cpu time spent up to now is     2996.5 secs

     per-process dynamical memory:   520.5 Mb

     Self-consistent Calculation

     iteration #  1     ecut=    80.00 Ry     beta= 0.30
     Davidson diagonalization with overlap
     ethr =  2.15E-06,  avg # of iterations = 10.0

     total cpu time spent up to now is     3009.7 secs

     total energy              =   -5839.80560237 Ry
     estimated scf accuracy    <       1.02025543 Ry

     iteration #  2     ecut=    80.00 Ry     beta= 0.30
     Davidson diagonalization with overlap
     ethr =  1.33E-04,  avg # of iterations =  1.0

     total cpu time spent up to now is     3013.0 secs

     total energy              =   -5839.65242484 Ry
     estimated scf accuracy    <       0.40007642 Ry

     iteration #  3     ecut=    80.00 Ry     beta= 0.30
     Davidson diagonalization with overlap
     ethr =  5.21E-05,  avg # of iterations =  3.0

     total cpu time spent up to now is     3017.3 secs

     total energy              =   -5839.72898316 Ry
     estimated scf accuracy    <       0.06818498 Ry

     iteration #  4     ecut=    80.00 Ry     beta= 0.30
     Davidson diagonalization with overlap
     ethr =  8.88E-06,  avg # of iterations =  2.0

     total cpu time spent up to now is     3021.6 secs

     total energy              =   -5839.72612635 Ry
     estimated scf accuracy    <       0.05223351 Ry

     iteration #  5     ecut=    80.00 Ry     beta= 0.30
     Davidson diagonalization with overlap
     ethr =  6.80E-06,  avg # of iterations =  2.0

     negative rho (up, down):  1.373E-04 0.000E+00

     total cpu time spent up to now is     3025.4 secs

     total energy              =   -5839.73375120 Ry
     estimated scf accuracy    <       0.02330476 Ry

     iteration #  6     ecut=    80.00 Ry     beta= 0.30
     Davidson diagonalization with overlap
     ethr =  3.03E-06,  avg # of iterations =  5.0

     negative rho (up, down):  9.462E-04 0.000E+00

     total cpu time spent up to now is     3030.7 secs

     total energy              =   -5839.72413712 Ry
     estimated scf accuracy    <       0.04308959 Ry

     iteration #  7     ecut=    80.00 Ry     beta= 0.30
     Davidson diagonalization with overlap
     ethr =  3.03E-06,  avg # of iterations =  3.0

     negative rho (up, down):  3.327E-03 0.000E+00

     total cpu time spent up to now is     3035.5 secs

     total energy              =   -5839.72931605 Ry
     estimated scf accuracy    <       0.01264593 Ry

     iteration #  8     ecut=    80.00 Ry     beta= 0.30
     Davidson diagonalization with overlap
     ethr =  1.65E-06,  avg # of iterations =  6.0

     total cpu time spent up to now is     3040.0 secs

     End of self-consistent calculation

          k = 0.0143 0.0223 0.0000 (106809 PWs)   bands (ev):

   -56.4158 -56.4156 -56.4152 -56.4150 -56.3861 -56.3860 -56.3854 -56.3854
   -56.3210 -56.3207 -56.3205 -56.3204 -56.2914 -56.2911 -56.2909 -56.2908
   -56.2717 -56.2698 -56.2667 -56.2644 -56.2402 -56.2394 -56.2381 -56.2372
   -56.2267 -56.2267 -56.2266 -56.2265 -56.1970 -56.1970 -56.1969 -56.1968
   -31.4713 -31.4711 -31.4707 -31.4704 -31.3675 -31.3671 -31.3668 -31.3667
   -31.3182 -31.3161 -31.3137 -31.3116 -31.2439 -31.2435 -31.2386 -31.2381
   -31.1947 -31.1942 -31.1882 -31.1876 -31.1806 -31.1806 -31.1803 -31.1802
   -31.1452 -31.1447 -31.1434 -31.1429 -31.1402 -31.1389 -31.1386 -31.1381
   -31.1247 -31.1193 -31.1185 -31.1169 -31.1104 -31.1101 -31.1090 -31.1086
   -31.1033 -31.1032 -31.0995 -31.0985 -31.0947 -31.0932 -31.0920 -31.0919
   -31.0775 -31.0775 -31.0771 -31.0771 -31.0464 -31.0462 -31.0459 -31.0447
   -31.0444 -31.0424 -31.0412 -31.0405 -31.0403 -31.0402 -31.0392 -31.0387
   -31.0210 -31.0208 -31.0190 -31.0175 -30.9977 -30.9969 -30.9965 -30.9948
   -30.9890 -30.9839 -30.9818 -30.9793 -30.9695 -30.9681 -30.9670 -30.9665
   -30.9664 -30.9647 -30.9586 -30.9561 -30.9557 -30.9543 -30.9542 -30.9541
   -30.8851 -30.8851 -30.8850 -30.8849 -30.8160 -30.8158 -30.8158 -30.8157
   -15.0960 -15.0220 -14.7973 -14.7585 -14.7505 -14.6316 -14.5425 -14.5370
   -14.4126 -14.2998 -14.2876 -14.2860 -14.2842 -14.2582 -14.2531 -14.2463
   -14.2185 -14.2127 -14.2086 -14.1746 -14.1583 -14.1335 -14.1252 -14.1023
   -14.0796 -14.0477 -14.0452 -14.0317 -13.9656 -13.9590 -13.9365 -13.9209
   -13.8548 -13.8446 -13.8375 -13.8093 -13.7615 -13.7594 -13.7376 -13.7369
   -13.7360 -13.7281 -13.7029 -13.6749 -13.6516 -13.6295 -13.6250 -13.6243
   -13.5966 -13.5807 -13.5580 -13.5580 -13.5548 -13.5361 -13.4889 -13.4832
   -12.6713 -12.6699 -12.6576 -12.6562 -12.6178 -12.6163 -12.6100 -12.6085
    -1.3267  -1.2216  -1.1960  -1.1946  -1.0326  -1.0271  -1.0211  -0.9245
    -0.7556  -0.6863  -0.6830  -0.6666  -0.6545  -0.6522  -0.5989  -0.5810
    -0.5546  -0.5500  -0.5019  -0.4428  -0.4364  -0.4356  -0.3915  -0.3872
    -0.3692  -0.3639  -0.3614  -0.3593  -0.3091  -0.2984  -0.2856  -0.2606
    -0.2211  -0.2119  -0.2054  -0.1920  -0.1560  -0.1358  -0.1329  -0.1146
    -0.1098  -0.1021  -0.0462  -0.0392  -0.0371  -0.0349  -0.0311   0.0003
     0.0777   0.0817   0.0926   0.1027   0.1314   0.1490   0.1875   0.2179
     0.2752   0.2947   0.2998   0.3286   0.3490   0.3501   0.5172   0.6106
     0.6216   0.6416   0.6628   0.6773   0.6996   0.7430   0.7454   0.7591
     0.8141   0.9212   0.9221   0.9301   0.9603   1.0107   1.0704   1.0895
     1.1110   1.1439   1.2371   1.2684   1.3733   1.3794   1.4559   1.4717
     1.4839   1.5407   1.5808   1.6202   1.6377   1.6448   1.6562   1.6751
     1.7062   1.7448   1.7845   1.7849   1.8096   1.8179   1.8553   1.8914
     1.9005   1.9092   1.9438   1.9478   1.9654   1.9753   1.9809   2.0178
     2.0207   2.0289   2.0640   2.0853   2.0887   2.1342   2.2062   2.2295
     2.2312   2.2586   2.2964   2.3138   2.3578   2.3759   2.3862   2.4389
     2.4726   2.5423   2.5443   2.5623   2.5705   2.6002   2.6448   2.6548
     2.6584   2.6632   2.7008   2.7045   2.7061   2.7779   2.8364   2.8725
     2.9005   2.9037   2.9092   2.9116   2.9199   2.9299   2.9476   3.0464
     3.0562   3.0700   3.0882   3.1129   3.1450   3.1571   3.1952   3.2224
     3.3005   3.3238   3.3326   3.3984   3.4384   3.4533   3.4949   3.4949
     3.5001   3.5008   3.5158   3.5264   3.5445   3.5873   3.5903   3.6453
     3.6771   3.6852   3.7023   3.7645   3.8354   3.8787   3.8861   3.8951
     3.9023   3.9268   3.9329   3.9671   4.0237   4.0748   4.1233   4.3245
     7.9583   7.9891   8.0152   8.0315   8.0901   8.1177   8.1258   8.1646
     8.1733   8.2013   8.2352   8.3416   8.3525   8.3749   8.3894   8.3896
     8.3993   8.4381   8.4816   8.5061   8.5322   8.6012   8.6110   8.6258
     8.6315   8.6601   8.6799   8.6849   8.6906   8.6962   8.7265   8.7475
     8.7542   8.7672   8.8135   8.8192   8.8198   8.8358   8.8429   8.9114
     8.9577   8.9608   8.9810   8.9930   9.0167   9.0367   9.0394   9.0661
     9.0764   9.0847   9.1075   9.1416   9.1478   9.1557   9.2094   9.2417
     9.2622   9.2666   9.3049   9.3079   9.3127   9.3180   9.3189   9.3767
     9.4217   9.4307   9.4471   9.5087   9.5118   9.5254   9.5279   9.5447
     9.5557   9.5788   9.6603   9.6776   9.7294

          k = 0.0143-0.0223 0.0000 (106809 PWs)   bands (ev):

   -56.4158 -56.4156 -56.4152 -56.4150 -56.3861 -56.3860 -56.3854 -56.3854
   -56.3210 -56.3207 -56.3205 -56.3204 -56.2914 -56.2911 -56.2909 -56.2908
   -56.2717 -56.2698 -56.2667 -56.2644 -56.2402 -56.2394 -56.2381 -56.2372
   -56.2267 -56.2267 -56.2266 -56.2265 -56.1970 -56.1970 -56.1969 -56.1968
   -31.4713 -31.4711 -31.4707 -31.4704 -31.3675 -31.3671 -31.3668 -31.3667
   -31.3182 -31.3161 -31.3137 -31.3116 -31.2439 -31.2435 -31.2386 -31.2381
   -31.1947 -31.1942 -31.1882 -31.1876 -31.1806 -31.1806 -31.1803 -31.1802
   -31.1452 -31.1447 -31.1434 -31.1429 -31.1402 -31.1389 -31.1386 -31.1381
   -31.1247 -31.1193 -31.1185 -31.1169 -31.1104 -31.1101 -31.1090 -31.1086
   -31.1033 -31.1032 -31.0995 -31.0985 -31.0947 -31.0932 -31.0920 -31.0919
   -31.0775 -31.0775 -31.0771 -31.0771 -31.0464 -31.0462 -31.0459 -31.0447
   -31.0444 -31.0424 -31.0412 -31.0405 -31.0403 -31.0402 -31.0392 -31.0387
   -31.0210 -31.0208 -31.0190 -31.0175 -30.9978 -30.9969 -30.9965 -30.9948
   -30.9890 -30.9839 -30.9818 -30.9793 -30.9695 -30.9681 -30.9670 -30.9665
   -30.9664 -30.9647 -30.9586 -30.9561 -30.9557 -30.9543 -30.9542 -30.9541
   -30.8851 -30.8851 -30.8850 -30.8849 -30.8160 -30.8158 -30.8158 -30.8157
   -15.0960 -15.0220 -14.7973 -14.7585 -14.7505 -14.6316 -14.5425 -14.5370
   -14.4126 -14.2998 -14.2876 -14.2860 -14.2842 -14.2582 -14.2531 -14.2463
   -14.2185 -14.2127 -14.2086 -14.1746 -14.1583 -14.1335 -14.1252 -14.1023
   -14.0796 -14.0477 -14.0452 -14.0317 -13.9656 -13.9590 -13.9365 -13.9209
   -13.8548 -13.8446 -13.8375 -13.8093 -13.7615 -13.7594 -13.7376 -13.7369
   -13.7360 -13.7281 -13.7029 -13.6749 -13.6516 -13.6295 -13.6250 -13.6243
   -13.5966 -13.5807 -13.5580 -13.5580 -13.5548 -13.5361 -13.4889 -13.4832
   -12.6713 -12.6699 -12.6576 -12.6562 -12.6178 -12.6163 -12.6100 -12.6085
    -1.3267  -1.2216  -1.1960  -1.1947  -1.0326  -1.0271  -1.0211  -0.9245
    -0.7556  -0.6863  -0.6830  -0.6665  -0.6544  -0.6522  -0.5989  -0.5810
    -0.5546  -0.5499  -0.5019  -0.4428  -0.4364  -0.4355  -0.3915  -0.3872
    -0.3692  -0.3639  -0.3614  -0.3593  -0.3091  -0.2984  -0.2856  -0.2606
    -0.2211  -0.2119  -0.2054  -0.1920  -0.1560  -0.1358  -0.1329  -0.1146
    -0.1099  -0.1021  -0.0461  -0.0391  -0.0371  -0.0350  -0.0311   0.0003
     0.0776   0.0817   0.0926   0.1027   0.1314   0.1490   0.1875   0.2179
     0.2752   0.2947   0.2999   0.3286   0.3490   0.3501   0.5172   0.6106
     0.6217   0.6416   0.6628   0.6773   0.6996   0.7430   0.7454   0.7591
     0.8141   0.9212   0.9222   0.9301   0.9603   1.0107   1.0704   1.0895
     1.1110   1.1439   1.2370   1.2684   1.3733   1.3794   1.4560   1.4717
     1.4839   1.5407   1.5808   1.6202   1.6377   1.6447   1.6562   1.6751
     1.7062   1.7448   1.7845   1.7849   1.8096   1.8178   1.8553   1.8914
     1.9006   1.9092   1.9438   1.9478   1.9655   1.9753   1.9808   2.0178
     2.0207   2.0289   2.0640   2.0853   2.0887   2.1341   2.2062   2.2295
     2.2312   2.2587   2.2964   2.3138   2.3578   2.3760   2.3861   2.4389
     2.4726   2.5424   2.5444   2.5623   2.5705   2.6002   2.6448   2.6548
     2.6584   2.6632   2.7009   2.7046   2.7061   2.7779   2.8364   2.8725
     2.9005   2.9037   2.9092   2.9115   2.9199   2.9300   2.9476   3.0464
     3.0562   3.0700   3.0882   3.1129   3.1450   3.1571   3.1953   3.2224
     3.3005   3.3238   3.3326   3.3985   3.4384   3.4533   3.4949   3.4949
     3.5002   3.5008   3.5158   3.5264   3.5445   3.5873   3.5903   3.6453
     3.6771   3.6852   3.7023   3.7646   3.8354   3.8787   3.8861   3.8952
     3.9023   3.9268   3.9329   3.9671   4.0237   4.0747   4.1233   4.3245
     7.9583   7.9890   8.0151   8.0315   8.0901   8.1178   8.1254   8.1648
     8.1732   8.2014   8.2352   8.3417   8.3524   8.3750   8.3894   8.3896
     8.3994   8.4382   8.4816   8.5061   8.5322   8.6012   8.6113   8.6257
     8.6316   8.6602   8.6800   8.6849   8.6905   8.6959   8.7264   8.7473
     8.7542   8.7671   8.8134   8.8191   8.8199   8.8358   8.8430   8.9112
     8.9580   8.9608   8.9809   8.9928   9.0173   9.0368   9.0397   9.0635
     9.0749   9.0835   9.1078   9.1413   9.1478   9.1556   9.2116   9.2414
     9.2629   9.2690   9.3051   9.3100   9.3137   9.3196   9.3217   9.3772
     9.4214   9.4296   9.4467   9.5114   9.5182   9.5186   9.5339   9.5448
     9.5550   9.5820   9.6577   9.7032   9.7191

     the Fermi energy is     6.0328 ev

!    total energy              =   -5839.72250409 Ry
     estimated scf accuracy    <       0.00973075 Ry
     smearing contrib. (-TS)   =      -0.00000000 Ry
     internal energy E=F+TS    =   -5839.72250409 Ry

     convergence has been achieved in   8 iterations

     Using ACE for calculation of exact exchange

     total energy              =   -5839.76768781 Ry
     Harris-Foulkes estimate   =   -5839.77606442 Ry
     est. exchange err (dexx)  =       0.04518372 Ry
     - averaged Fock potential =     369.48686689 Ry
     + Fock energy (ACE)       =    -184.86524877 Ry

     EXX: now go back to refine exchange calculation

     total cpu time spent up to now is     5877.2 secs

     per-process dynamical memory:   565.9 Mb

     Self-consistent Calculation

     iteration #  1     ecut=    80.00 Ry     beta= 0.30
     Davidson diagonalization with overlap
     ethr =  1.65E-06,  avg # of iterations = 10.0

     total cpu time spent up to now is     5887.4 secs

     total energy              =   -5839.79603988 Ry
     estimated scf accuracy    <       0.11368640 Ry

     iteration #  2     ecut=    80.00 Ry     beta= 0.30
     Davidson diagonalization with overlap
     ethr =  1.48E-05,  avg # of iterations =  1.0

     total cpu time spent up to now is     5890.7 secs

     total energy              =   -5839.78879157 Ry
     estimated scf accuracy    <       0.07202254 Ry

     iteration #  3     ecut=    80.00 Ry     beta= 0.30
     Davidson diagonalization with overlap
     ethr =  9.38E-06,  avg # of iterations =  2.0

     total cpu time spent up to now is     5894.4 secs

     total energy              =   -5839.79130231 Ry
     estimated scf accuracy    <       0.05063236 Ry

     iteration #  4     ecut=    80.00 Ry     beta= 0.30
     Davidson diagonalization with overlap
     ethr =  6.59E-06,  avg # of iterations =  1.0

     total cpu time spent up to now is     5897.7 secs

     total energy              =   -5839.78725744 Ry
     estimated scf accuracy    <       0.04378883 Ry

     iteration #  5     ecut=    80.00 Ry     beta= 0.30
     Davidson diagonalization with overlap
     ethr =  5.70E-06,  avg # of iterations =  6.0

     total cpu time spent up to now is     5901.9 secs

     total energy              =   -5839.78633323 Ry
     estimated scf accuracy    <       0.02718500 Ry

     iteration #  6     ecut=    80.00 Ry     beta= 0.30
     Davidson diagonalization with overlap
     ethr =  3.54E-06,  avg # of iterations =  6.0

     total cpu time spent up to now is     5907.3 secs

     total energy              =   -5839.78192997 Ry
     estimated scf accuracy    <       0.03202431 Ry

     iteration #  7     ecut=    80.00 Ry     beta= 0.30
     Davidson diagonalization with overlap
     ethr =  3.54E-06,  avg # of iterations =  6.0

     total cpu time spent up to now is     5911.5 secs

     End of self-consistent calculation

          k = 0.0143 0.0223 0.0000 (106809 PWs)   bands (ev):

   -56.6487 -56.6464 -56.6434 -56.6414 -56.6170 -56.6160 -56.6148 -56.6139
   -56.5656 -56.5655 -56.5651 -56.5648 -56.5362 -56.5361 -56.5357 -56.5354
   -56.4935 -56.4934 -56.4927 -56.4924 -56.4641 -56.4641 -56.4633 -56.4630
   -56.1796 -56.1789 -56.1787 -56.1785 -56.1500 -56.1492 -56.1491 -56.1489
   -31.6864 -31.6846 -31.6819 -31.6806 -31.6018 -31.6016 -31.6013 -31.6010
   -31.5413 -31.5412 -31.5405 -31.5403 -31.4769 -31.4765 -31.4703 -31.4691
   -31.4081 -31.4064 -31.4062 -31.4016 -31.3792 -31.3777 -31.3759 -31.3747
   -31.3534 -31.3526 -31.3525 -31.3522 -31.3443 -31.3433 -31.3425 -31.3423
   -31.3343 -31.3311 -31.3292 -31.3276 -31.3272 -31.3254 -31.3246 -31.3203
   -31.2796 -31.2788 -31.2787 -31.2781 -31.2771 -31.2768 -31.2766 -31.2762
   -31.2642 -31.2634 -31.2608 -31.2586 -31.2547 -31.2545 -31.2540 -31.2535
   -31.2180 -31.2174 -31.2172 -31.2166 -31.2094 -31.2093 -31.2085 -31.2084
   -31.2020 -31.2019 -31.2011 -31.2010 -31.1961 -31.1957 -31.1952 -31.1948
   -31.1026 -31.1020 -31.1016 -31.1015 -31.0547 -31.0539 -31.0536 -31.0529
   -31.0310 -31.0302 -31.0300 -31.0297 -30.9060 -30.9053 -30.9051 -30.9047
   -30.8324 -30.8317 -30.8317 -30.8314 -30.7714 -30.7706 -30.7703 -30.7702
   -15.3503 -15.1511 -15.0076 -14.9461 -14.9023 -14.8121 -14.7148 -14.6981
   -14.5906 -14.5220 -14.5159 -14.4891 -14.4748 -14.4514 -14.4240 -14.4012
   -14.3519 -14.3296 -14.3227 -14.3200 -14.2634 -14.2509 -14.2500 -14.2294
   -14.2137 -14.1693 -14.1399 -14.1368 -14.1206 -14.1152 -14.1060 -14.0924
   -14.0070 -14.0063 -14.0039 -13.9826 -13.9491 -13.9354 -13.9277 -13.9275
   -13.9090 -13.8867 -13.8613 -13.8537 -13.8450 -13.8372 -13.8302 -13.8264
   -13.8211 -13.8164 -13.7975 -13.7942 -13.7858 -13.7814 -13.7421 -13.7239
   -12.5481 -12.5468 -12.5351 -12.5338 -12.4909 -12.4896 -12.4834 -12.4820
    -1.5890  -1.4500  -1.4484  -1.4110  -1.1832  -1.1647  -1.1609  -1.1045
    -0.9426  -0.9072  -0.9041  -0.8857  -0.8710  -0.8612  -0.8045  -0.8025
    -0.8020  -0.7392  -0.6858  -0.6808  -0.6182  -0.5929  -0.5882  -0.5820
    -0.5583  -0.5281  -0.4588  -0.4378  -0.4108  -0.4020  -0.3990  -0.3851
    -0.3817  -0.3772  -0.3657  -0.3652  -0.3582  -0.3470  -0.3071  -0.3003
    -0.2613  -0.2381  -0.2294  -0.2103  -0.1919  -0.1874  -0.1640  -0.1227
    -0.1105  -0.1054  -0.0857  -0.0775  -0.0382  -0.0201  -0.0062   0.0679
     0.0817   0.1305   0.1591   0.1670   0.1744   0.1925   0.3140   0.3972
     0.4574   0.5087   0.5221   0.5335   0.5794   0.6566   0.7231   0.7363
     0.7839   0.7877   0.7995   0.8388   0.8441   0.9249   0.9372   0.9526
     0.9568   0.9770   1.0926   1.1048   1.2390   1.2414   1.2484   1.2663
     1.3224   1.3551   1.3830   1.4104   1.4110   1.4671   1.4721   1.4946
     1.5349   1.5555   1.5958   1.5961   1.5987   1.6149   1.6496   1.6763
     1.6910   1.7438   1.7576   1.7751   1.7852   1.7856   1.7970   1.8498
     1.8631   1.8710   1.9002   1.9483   1.9578   2.0136   2.0693   2.0703
     2.0986   2.1245   2.1581   2.1804   2.1879   2.2674   2.2693   2.2949
     2.3051   2.3726   2.4042   2.4101   2.4363   2.4433   2.4618   2.4721
     2.5216   2.5373   2.5407   2.5585   2.5602   2.5637   2.6106   2.6180
     2.7017   2.7410   2.7733   2.8019   2.8075   2.8172   2.8481   2.9159
     2.9298   2.9754   2.9755   2.9787   3.1022   3.1302   3.1304   3.1348
     3.1426   3.1834   3.1962   3.2136   3.2603   3.2648   3.2888   3.2903
     3.3231   3.3665   3.3764   3.4286   3.4850   3.4880   3.5853   3.5894
     3.5932   3.6087   3.6102   3.6986   3.7620   3.8033   3.9149   3.9534
     3.9546   3.9555   3.9594   4.0020   4.0033   4.0305   4.1244   4.1309
     7.7959   7.8399   7.8863   7.9382   7.9888   7.9965   8.0225   8.0366
     8.0662   8.0710   8.1159   8.1826   8.2267   8.2291   8.2552   8.2606
     8.2786   8.2861   8.3467   8.3637   8.3971   8.4126   8.4429   8.4433
     8.4521   8.4939   8.5146   8.5557   8.5882   8.6022   8.6150   8.6261
     8.6282   8.6385   8.6667   8.7346   8.7384   8.7395   8.7707   8.7817
     8.8101   8.8637   8.8992   8.9055   8.9169   8.9615   8.9666   8.9711
     8.9899   9.0127   9.0583   9.0674   9.0860   9.0872   9.0881   9.0991
     9.1237   9.1319   9.1328   9.1455   9.1637   9.1754   9.1757   9.1768
     9.1853   9.2003   9.2507   9.3542   9.3624   9.3713   9.4017   9.4063
     9.4147   9.5062   9.5155   9.5500   9.5544

          k = 0.0143-0.0223 0.0000 (106809 PWs)   bands (ev):

   -56.6487 -56.6464 -56.6434 -56.6414 -56.6170 -56.6160 -56.6148 -56.6139
   -56.5656 -56.5655 -56.5651 -56.5648 -56.5362 -56.5361 -56.5357 -56.5354
   -56.4935 -56.4934 -56.4927 -56.4924 -56.4641 -56.4641 -56.4633 -56.4630
   -56.1796 -56.1789 -56.1787 -56.1785 -56.1500 -56.1492 -56.1491 -56.1489
   -31.6864 -31.6846 -31.6819 -31.6806 -31.6018 -31.6016 -31.6013 -31.6010
   -31.5413 -31.5412 -31.5405 -31.5403 -31.4769 -31.4765 -31.4703 -31.4691
   -31.4081 -31.4064 -31.4062 -31.4016 -31.3792 -31.3777 -31.3759 -31.3747
   -31.3534 -31.3526 -31.3525 -31.3522 -31.3443 -31.3433 -31.3425 -31.3423
   -31.3343 -31.3311 -31.3292 -31.3276 -31.3272 -31.3254 -31.3246 -31.3203
   -31.2796 -31.2788 -31.2787 -31.2781 -31.2771 -31.2768 -31.2766 -31.2762
   -31.2642 -31.2634 -31.2608 -31.2586 -31.2547 -31.2545 -31.2540 -31.2535
   -31.2180 -31.2174 -31.2172 -31.2166 -31.2094 -31.2093 -31.2085 -31.2084
   -31.2020 -31.2019 -31.2011 -31.2010 -31.1961 -31.1957 -31.1952 -31.1948
   -31.1026 -31.1020 -31.1016 -31.1015 -31.0547 -31.0539 -31.0536 -31.0529
   -31.0310 -31.0302 -31.0300 -31.0297 -30.9060 -30.9053 -30.9051 -30.9047
   -30.8324 -30.8317 -30.8317 -30.8314 -30.7714 -30.7706 -30.7703 -30.7702
   -15.3503 -15.1511 -15.0076 -14.9461 -14.9023 -14.8121 -14.7148 -14.6981
   -14.5906 -14.5220 -14.5159 -14.4891 -14.4748 -14.4514 -14.4240 -14.4012
   -14.3519 -14.3296 -14.3227 -14.3200 -14.2634 -14.2509 -14.2500 -14.2294
   -14.2137 -14.1693 -14.1399 -14.1368 -14.1206 -14.1152 -14.1060 -14.0924
   -14.0070 -14.0063 -14.0039 -13.9826 -13.9491 -13.9354 -13.9277 -13.9275
   -13.9090 -13.8867 -13.8613 -13.8537 -13.8450 -13.8372 -13.8302 -13.8264
   -13.8211 -13.8164 -13.7975 -13.7942 -13.7858 -13.7814 -13.7421 -13.7239
   -12.5481 -12.5468 -12.5351 -12.5338 -12.4909 -12.4896 -12.4834 -12.4820
    -1.5890  -1.4500  -1.4484  -1.4110  -1.1832  -1.1647  -1.1609  -1.1045
    -0.9426  -0.9072  -0.9041  -0.8857  -0.8710  -0.8612  -0.8045  -0.8024
    -0.8020  -0.7392  -0.6858  -0.6808  -0.6182  -0.5928  -0.5882  -0.5820
    -0.5583  -0.5281  -0.4588  -0.4378  -0.4108  -0.4020  -0.3990  -0.3851
    -0.3817  -0.3772  -0.3657  -0.3652  -0.3582  -0.3470  -0.3071  -0.3003
    -0.2613  -0.2381  -0.2294  -0.2103  -0.1919  -0.1874  -0.1640  -0.1227
    -0.1105  -0.1054  -0.0857  -0.0775  -0.0382  -0.0201  -0.0062   0.0679
     0.0817   0.1305   0.1591   0.1670   0.1744   0.1925   0.3140   0.3972
     0.4574   0.5087   0.5221   0.5335   0.5794   0.6566   0.7231   0.7363
     0.7839   0.7877   0.7995   0.8388   0.8441   0.9250   0.9372   0.9526
     0.9568   0.9770   1.0926   1.1048   1.2390   1.2414   1.2484   1.2663
     1.3224   1.3551   1.3830   1.4104   1.4110   1.4671   1.4721   1.4946
     1.5349   1.5555   1.5958   1.5961   1.5987   1.6149   1.6496   1.6763
     1.6910   1.7438   1.7576   1.7751   1.7852   1.7856   1.7970   1.8498
     1.8631   1.8710   1.9002   1.9483   1.9578   2.0136   2.0693   2.0703
     2.0986   2.1245   2.1581   2.1804   2.1879   2.2674   2.2693   2.2949
     2.3051   2.3726   2.4042   2.4101   2.4363   2.4433   2.4618   2.4721
     2.5216   2.5373   2.5407   2.5585   2.5602   2.5637   2.6106   2.6180
     2.7017   2.7410   2.7733   2.8019   2.8075   2.8172   2.8481   2.9159
     2.9298   2.9754   2.9755   2.9787   3.1022   3.1302   3.1304   3.1348
     3.1426   3.1834   3.1962   3.2136   3.2603   3.2648   3.2888   3.2903
     3.3231   3.3665   3.3764   3.4286   3.4850   3.4880   3.5853   3.5894
     3.5933   3.6087   3.6102   3.6986   3.7620   3.8033   3.9149   3.9534
     3.9546   3.9555   3.9594   4.0020   4.0033   4.0305   4.1244   4.1309
     7.7959   7.8398   7.8863   7.9381   7.9888   7.9965   8.0224   8.0366
     8.0662   8.0711   8.1159   8.1826   8.2267   8.2290   8.2552   8.2606
     8.2786   8.2861   8.3466   8.3637   8.3971   8.4126   8.4429   8.4434
     8.4520   8.4939   8.5146   8.5557   8.5882   8.6023   8.6151   8.6261
     8.6283   8.6385   8.6666   8.7346   8.7386   8.7395   8.7708   8.7818
     8.8100   8.8637   8.8991   8.9056   8.9170   8.9615   8.9665   8.9710
     8.9899   9.0128   9.0577   9.0669   9.0859   9.0873   9.0877   9.0991
     9.1237   9.1319   9.1329   9.1455   9.1640   9.1751   9.1757   9.1764
     9.1853   9.2003   9.2508   9.3541   9.3624   9.3714   9.4034   9.4068
     9.4146   9.5059   9.5130   9.5504   9.5534

     the Fermi energy is     5.8542 ev

!    total energy              =   -5839.77872308 Ry
     estimated scf accuracy    <       0.00912431 Ry
     smearing contrib. (-TS)   =      -0.00000000 Ry
     internal energy E=F+TS    =   -5839.77872308 Ry

     convergence has been achieved in   7 iterations

     Using ACE for calculation of exact exchange

!!   total energy              =   -5839.78072493 Ry
     Harris-Foulkes estimate   =   -5839.78672682 Ry
     est. exchange err (dexx)  =       0.00200185 Ry
     - averaged Fock potential =     369.78291540 Ry
     + Fock energy (ACE)       =    -184.91966847 Ry

     EXX self-consistency reached

     Forces acting on atoms (cartesian axes, Ry/au):

     atom    1 type  1   force =    -0.01051678    0.00002933   -0.00675222
     atom    2 type  1   force =    -0.00742150    0.00001381   -0.00848945
     atom    3 type  1   force =    -0.03935815   -0.00002881   -0.01039533
     atom    4 type  1   force =    -0.11014117    0.00000429    0.05487585
     atom    5 type  1   force =     0.00705555   -0.00000571    0.00683267
     atom    6 type  1   force =    -0.00601709   -0.00000021   -0.00609697
     atom    7 type  1   force =     0.00387356    0.00000970   -0.00469176
     atom    8 type  1   force =    -0.00842847   -0.00000189    0.00738941
     atom    9 type  1   force =     0.00389101   -0.00000454    0.00470060
     atom   10 type  1   force =    -0.00844442   -0.00000741   -0.00740340
     atom   11 type  1   force =     0.00707045    0.00001428   -0.00684467
     atom   12 type  1   force =    -0.00601332   -0.00002732    0.00611386
     atom   13 type  1   force =    -0.03939682   -0.00000991    0.01033692
     atom   14 type  1   force =    -0.11015948    0.00001038   -0.05483425
     atom   15 type  1   force =    -0.01050861    0.00000459    0.00669648
     atom   16 type  1   force =    -0.00742115    0.00001371    0.00846338
     atom   17 type  1   force =    -0.01050709    0.00003220   -0.00672252
     atom   18 type  1   force =    -0.00741284    0.00001281   -0.00847275
     atom   19 type  1   force =    -0.03936306   -0.00002725   -0.01037925
     atom   20 type  1   force =    -0.11013985    0.00001296    0.05486703
     atom   21 type  1   force =     0.00705085    0.00000641    0.00683711
     atom   22 type  1   force =    -0.00600014   -0.00001036   -0.00608624
     atom   23 type  1   force =     0.00384839    0.00000995   -0.00466776
     atom   24 type  1   force =    -0.00840108    0.00001620    0.00738627
     atom   25 type  1   force =     0.00390682    0.00001858    0.00469367
     atom   26 type  1   force =    -0.00844473   -0.00002847   -0.00740144
     atom   27 type  1   force =     0.00710350    0.00003136   -0.00685416
     atom   28 type  1   force =    -0.00601998    0.00000759    0.00608548
     atom   29 type  1   force =    -0.03936571   -0.00003007    0.01029050
     atom   30 type  1   force =    -0.11014419   -0.00000478   -0.05484975
     atom   31 type  1   force =    -0.01051843   -0.00001472    0.00672030
     atom   32 type  1   force =    -0.00743574    0.00001748    0.00847559
     atom   33 type  1   force =    -0.01051662    0.00002243   -0.00673401
     atom   34 type  1   force =    -0.00743921    0.00000910   -0.00848317
     atom   35 type  1   force =    -0.03935449   -0.00001588   -0.01035684
     atom   36 type  1   force =    -0.11016413    0.00000079    0.05488784
     atom   37 type  1   force =     0.00706042    0.00000018    0.00684993
     atom   38 type  1   force =    -0.00603503    0.00000110   -0.00611002
     atom   39 type  1   force =     0.00390703    0.00001887   -0.00471361
     atom   40 type  1   force =    -0.00843075   -0.00000364    0.00739689
     atom   41 type  1   force =     0.00391166    0.00001088    0.00469213
     atom   42 type  1   force =    -0.00841498   -0.00002753   -0.00737165
     atom   43 type  1   force =     0.00708362   -0.00000942   -0.00684803
     atom   44 type  1   force =    -0.00604054   -0.00000947    0.00612600
     atom   45 type  1   force =    -0.03934413   -0.00001211    0.01033270
     atom   46 type  1   force =    -0.11015413    0.00000103   -0.05484410
     atom   47 type  1   force =    -0.01050752    0.00000173    0.00672180
     atom   48 type  1   force =    -0.00742431    0.00002949    0.00849445
     atom   49 type  1   force =    -0.01053284    0.00002321   -0.00673645
     atom   50 type  1   force =    -0.00743846    0.00002539   -0.00847670
     atom   51 type  1   force =    -0.03934399   -0.00001932   -0.01039432
     atom   52 type  1   force =    -0.11017374    0.00000960    0.05488483
     atom   53 type  1   force =     0.00706515    0.00001007    0.00684160
     atom   54 type  1   force =    -0.00601791   -0.00002348   -0.00608412
     atom   55 type  1   force =     0.00390213    0.00000721   -0.00472568
     atom   56 type  1   force =    -0.00846601   -0.00002651    0.00739238
     atom   57 type  1   force =     0.00389868    0.00000721    0.00470082
     atom   58 type  1   force =    -0.00842832   -0.00001418   -0.00736383
     atom   59 type  1   force =     0.00709543   -0.00000815   -0.00686063
     atom   60 type  1   force =    -0.00603604   -0.00002485    0.00610839
     atom   61 type  1   force =    -0.03936239   -0.00002483    0.01032913
     atom   62 type  1   force =    -0.11014866    0.00000227   -0.05483751
     atom   63 type  1   force =    -0.01049779    0.00000432    0.00670532
     atom   64 type  1   force =    -0.00738881    0.00003675    0.00847022
     atom   65 type  2   force =     0.16586802   -0.00000472   -0.02252977
     atom   66 type  2   force =     0.00568978   -0.00000788   -0.00992430
     atom   67 type  2   force =    -0.00207871    0.00000171   -0.01162064
     atom   68 type  2   force =     0.00138909    0.00000392   -0.00598197
     atom   69 type  2   force =     0.00139225   -0.00000226    0.00597516
     atom   70 type  2   force =    -0.00207906   -0.00000502    0.01166917
     atom   71 type  2   force =     0.00570708   -0.00000589    0.00996478
     atom   72 type  2   force =     0.16589201   -0.00000668    0.02253049
     atom   73 type  2   force =     0.16587747   -0.00000653   -0.02253437
     atom   74 type  2   force =     0.00568891   -0.00000966   -0.00992794
     atom   75 type  2   force =    -0.00207484   -0.00000821   -0.01162187
     atom   76 type  2   force =     0.00139705   -0.00000477   -0.00598203
     atom   77 type  2   force =     0.00139614    0.00000623    0.00597622
     atom   78 type  2   force =    -0.00208304    0.00000534    0.01167363
     atom   79 type  2   force =     0.00570197   -0.00000523    0.00996880
     atom   80 type  2   force =     0.16588074    0.00000442    0.02251652
     atom   81 type  2   force =     0.16593825    0.00000376   -0.02258183
     atom   82 type  2   force =     0.00570965   -0.00000325   -0.00993055
     atom   83 type  2   force =    -0.00204108   -0.00000815   -0.01161392
     atom   84 type  2   force =     0.00142060   -0.00000202   -0.00597932
     atom   85 type  2   force =     0.00142804   -0.00000408    0.00598020
     atom   86 type  2   force =    -0.00206606    0.00000185    0.01165690
     atom   87 type  2   force =     0.00568736   -0.00000513    0.00998007
     atom   88 type  2   force =     0.16589210   -0.00000398    0.02249891
     atom   89 type  2   force =     0.16594112   -0.00000174   -0.02257330
     atom   90 type  2   force =     0.00571408   -0.00000134   -0.00993186
     atom   91 type  2   force =    -0.00203159   -0.00000243   -0.01161585
     atom   92 type  2   force =     0.00141012    0.00000202   -0.00597667
     atom   93 type  2   force =     0.00142637   -0.00000435    0.00598107
     atom   94 type  2   force =    -0.00205736    0.00000523    0.01165566
     atom   95 type  2   force =     0.00569170   -0.00000723    0.00998206
     atom   96 type  2   force =     0.16588820    0.00000963    0.02249961

     Total force =     0.605009     Total SCF correction =     0.416547
     SCF correction compared to forces is large: reduce conv_thr to get better values

     Writing all to output data dir ./calc.save/

     init_run     :      3.23s CPU      3.28s WALL (       1 calls)
     electrons    :    181.90s CPU    188.36s WALL (       3 calls)
     forces       :      0.92s CPU      0.94s WALL (       1 calls)

     Called by init_run:
     wfcinit      :      2.52s CPU      2.57s WALL (       1 calls)
     potinit      :      0.07s CPU      0.08s WALL (       1 calls)
     hinit0       :      0.35s CPU      0.35s WALL (       1 calls)

     Called by electrons:
     c_bands      :    167.64s CPU    172.20s WALL (      33 calls)
     sum_band     :     13.43s CPU     13.77s WALL (      33 calls)
     v_of_rho     :      0.51s CPU      0.53s WALL (      35 calls)
     mix_rho      :      0.07s CPU      0.07s WALL (      33 calls)

     Called by c_bands:
     init_us_2    :      0.19s CPU      0.20s WALL (     136 calls)
     init_us_2:cp :      0.19s CPU      0.20s WALL (     136 calls)
     cegterg      :    166.50s CPU    171.03s WALL (      66 calls)

     Called by *egterg:
     cdiaghg      :     48.93s CPU     49.95s WALL (     447 calls)
     h_psi        :     86.71s CPU     88.93s WALL (     453 calls)
     g_psi        :      0.06s CPU      0.06s WALL (     385 calls)

     Called by h_psi:
     h_psi:calbec :      9.69s CPU     10.12s WALL (     453 calls)
     vloc_psi     :     68.32s CPU     69.96s WALL (     453 calls)
     add_vuspsi   :      5.91s CPU      6.01s WALL (     453 calls)

     General routines
     calbec       :     12.48s CPU     12.99s WALL (     645 calls)
     fft          :      0.55s CPU      0.57s WALL (     356 calls)
     ffts         :      0.03s CPU      0.03s WALL (      33 calls)
     fftw         :     79.63s CPU     81.55s WALL (  190134 calls)
     fftc         :   7772.59s CPU   7850.02s WALL (10201008 calls)
     fftcw        :      3.52s CPU      3.58s WALL (    8298 calls)

     Parallel routines
     fft_scatt_xy :    113.16s CPU    114.18s WALL (10399829 calls)
     fft_scatt_yz :   6872.05s CPU   6944.86s WALL (10399829 calls)

     EXX routines
     exx_grid     :      0.00s CPU      0.00s WALL (       1 calls)
     exxinit      :     91.48s CPU     93.54s WALL (       3 calls)
     vexx         :   8400.12s CPU   8484.16s WALL (       6 calls)
     matcalc      :      2.41s CPU      2.48s WALL (     184 calls)
     aceupdate    :      0.13s CPU      0.13s WALL (       6 calls)
     vexxace      :      3.21s CPU      3.28s WALL (     168 calls)
     aceinit      :   8400.37s CPU   8484.41s WALL (       6 calls)

     PWSCF        :      2h24m CPU      2h26m WALL


   This run was terminated on:  13:12:29  24Feb2023            

=------------------------------------------------------------------------------=
   JOB DONE.
=------------------------------------------------------------------------------=
