
     Program PWSCF v.7.0 starts on 29Mar2023 at 16:50: 2 

     This program is part of the open-source Quantum ESPRESSO suite
     for quantum simulation of materials; please cite
         "P. Giannozzi et al., J. Phys.:Condens. Matter 21 395502 (2009);
         "P. Giannozzi et al., J. Phys.:Condens. Matter 29 465901 (2017);
         "P. Giannozzi et al., J. Chem. Phys. 152 154105 (2020);
          URL http://www.quantum-espresso.org", 
     in publications or presentations arising from this work. More details at
     http://www.quantum-espresso.org/quote

     Parallel version (MPI), running on   960 processors

     MPI processes distributed on    80 nodes
     R & G space division:  proc/nbgrp/npool/nimage =     960
     177226 MiB available memory on the printing compute node when the environment starts

     Reading input from pw_soc_cg.inp
Warning: card &CELL ignored
Warning: card / ignored

     Current dimensions of program PWSCF are:
     Max number of different atomic species (ntypx) = 10
     Max number of k-points (npk) =  40000
     Max angular momentum in pseudopotentials (lmaxx) =  4
     Message from routine cell_base_init:
     DEPRECATED: use true lattice parameter, not A to a.u. conversion factor

     IMPORTANT: XC functional enforced from input :
     Exchange-correlation= PBE
                           (   1   4   3   4   0   0   0)
     Any further DFT definition will be discarded
     Please, verify this is what you really want

     Found identity + (  0.0000  0.0000 -0.5000) symmetry
     This is a supercell, fractional translations are disabled

     Subspace diagonalization in iterative solution of the eigenvalue problem:
     one sub-group per band group will be used
     scalapack distributed-memory algorithm (size of sub-group: 30* 30 procs)


     Parallelization info
     --------------------
     sticks:   dense  smooth     PW     G-vecs:    dense   smooth      PW
     Min          30      30      7                 1786     1786     229
     Max          31      31      8                 1795     1795     240
     Sum       29353   29353   7589              1718551  1718551  226033

     Using Pencil Decomposition



     bravais-lattice index     =            0
     lattice parameter (alat)  =       1.0000  a.u.
     unit-cell volume          =   17775.3313 (a.u.)^3
     number of atoms/cell      =           72
     number of atomic types    =            1
     number of electrons       =      1368.00
     number of Kohn-Sham states=         1650
     kinetic-energy cutoff     =      80.0000  Ry
     charge density cutoff     =     320.0000  Ry
     scf convergence threshold =      1.0E-02
     mixing beta               =       0.2000
     number of iterations used =            8  TF        mixing
     Exchange-correlation= PBE
                           (   1   4   3   4   0   0   0)
     Non magnetic calculation with spin-orbit


     celldm(1)=   1.000000  celldm(2)=   0.000000  celldm(3)=   0.000000
     celldm(4)=   0.000000  celldm(5)=   0.000000  celldm(6)=   0.000000

     crystal axes: (cart. coord. in units of alat)
               a(1) = (  33.951920   0.000000   0.000000 )  
               a(2) = (   0.000000  33.951920   0.000000 )  
               a(3) = (   0.000000   0.000000  15.420165 )  

     reciprocal axes: (cart. coord. in units 2 pi/alat)
               b(1) = (  0.029453  0.000000  0.000000 )  
               b(2) = (  0.000000  0.029453  0.000000 )  
               b(3) = (  0.000000  0.000000  0.064850 )  


     PseudoPot. # 1 for Au read from file:
     .././Au_FR.upf
     MD5 check sum: 0f4c7ff4841ea3d6668dbbe9cc620d4d
     Pseudo is Norm-conserving + core correction, Zval = 19.0
     Generated using ONCVPSP code by D. R. Hamann
     Using radial grid of 1356 points, 12 beta functions with: 
                l(1) =   0
                l(2) =   0
                l(3) =   1
                l(4) =   1
                l(5) =   1
                l(6) =   1
                l(7) =   2
                l(8) =   2
                l(9) =   2
               l(10) =   2
               l(11) =   3
               l(12) =   3

     atomic species   valence    mass     pseudopotential
        Au            19.00   197.00000     Au( 1.00)

     No symmetry found


                                    s                        frac. trans.

      isym =  1     identity                                     

 cryst.   s( 1) = (     1          0          0      )
                  (     0          1          0      )
                  (     0          0          1      )

 cart.    s( 1) = (  1.0000000  0.0000000  0.0000000 )
                  (  0.0000000  1.0000000  0.0000000 )
                  (  0.0000000  0.0000000  1.0000000 )


   Cartesian axes

     site n.     atom                  positions (alat units)
         1           Au  tau(   1) = (   7.3383567   7.3383567   1.9275206  )
         2           Au  tau(   2) = (   7.3383567  11.1933981   5.7825619  )
         3           Au  tau(   3) = (  11.1933981   7.3383567   5.7825619  )
         4           Au  tau(   4) = (  11.1933981  11.1933981   1.9275206  )
         5           Au  tau(   5) = (   7.3383567  15.0484394   1.9275206  )
         6           Au  tau(   6) = (   7.3383567  18.9034806   5.7825619  )
         7           Au  tau(   7) = (  11.1933981  15.0484394   5.7825619  )
         8           Au  tau(   8) = (  11.1933981  18.9034806   1.9275206  )
         9           Au  tau(   9) = (   7.3383567  22.7585219   1.9275206  )
        10           Au  tau(  10) = (   7.3383567  26.6135632   5.7825619  )
        11           Au  tau(  11) = (  11.1933981  22.7585219   5.7825619  )
        12           Au  tau(  12) = (  11.1933981  26.6135632   1.9275206  )
        13           Au  tau(  13) = (  15.0484394   7.3383567   1.9275206  )
        14           Au  tau(  14) = (  15.0484394  11.1933981   5.7825619  )
        15           Au  tau(  15) = (  18.9034806   7.3383567   5.7825619  )
        16           Au  tau(  16) = (  18.9034806  11.1933981   1.9275206  )
        17           Au  tau(  17) = (  15.0484394  15.0484394   1.9275206  )
        18           Au  tau(  18) = (  15.0484394  18.9034806   5.7825619  )
        19           Au  tau(  19) = (  18.9034806  15.0484394   5.7825619  )
        20           Au  tau(  20) = (  18.9034806  18.9034806   1.9275206  )
        21           Au  tau(  21) = (  15.0484394  22.7585219   1.9275206  )
        22           Au  tau(  22) = (  15.0484394  26.6135632   5.7825619  )
        23           Au  tau(  23) = (  18.9034806  22.7585219   5.7825619  )
        24           Au  tau(  24) = (  18.9034806  26.6135632   1.9275206  )
        25           Au  tau(  25) = (  22.7585219   7.3383567   1.9275206  )
        26           Au  tau(  26) = (  22.7585219  11.1933981   5.7825619  )
        27           Au  tau(  27) = (  26.6135632   7.3383567   5.7825619  )
        28           Au  tau(  28) = (  26.6135632  11.1933981   1.9275206  )
        29           Au  tau(  29) = (  22.7585219  15.0484394   1.9275206  )
        30           Au  tau(  30) = (  22.7585219  18.9034806   5.7825619  )
        31           Au  tau(  31) = (  26.6135632  15.0484394   5.7825619  )
        32           Au  tau(  32) = (  26.6135632  18.9034806   1.9275206  )
        33           Au  tau(  33) = (  22.7585219  22.7585219   1.9275206  )
        34           Au  tau(  34) = (  22.7585219  26.6135632   5.7825619  )
        35           Au  tau(  35) = (  26.6135632  22.7585219   5.7825619  )
        36           Au  tau(  36) = (  26.6135632  26.6135632   1.9275206  )
        37           Au  tau(  37) = (   7.3383567   7.3383567   9.6376032  )
        38           Au  tau(  38) = (   7.3383567  11.1933981  13.4926445  )
        39           Au  tau(  39) = (  11.1933981   7.3383567  13.4926445  )
        40           Au  tau(  40) = (  11.1933981  11.1933981   9.6376032  )
        41           Au  tau(  41) = (   7.3383567  15.0484394   9.6376032  )
        42           Au  tau(  42) = (   7.3383567  18.9034806  13.4926445  )
        43           Au  tau(  43) = (  11.1933981  15.0484394  13.4926445  )
        44           Au  tau(  44) = (  11.1933981  18.9034806   9.6376032  )
        45           Au  tau(  45) = (   7.3383567  22.7585219   9.6376032  )
        46           Au  tau(  46) = (   7.3383567  26.6135632  13.4926445  )
        47           Au  tau(  47) = (  11.1933981  22.7585219  13.4926445  )
        48           Au  tau(  48) = (  11.1933981  26.6135632   9.6376032  )
        49           Au  tau(  49) = (  15.0484394   7.3383567   9.6376032  )
        50           Au  tau(  50) = (  15.0484394  11.1933981  13.4926445  )
        51           Au  tau(  51) = (  18.9034806   7.3383567  13.4926445  )
        52           Au  tau(  52) = (  18.9034806  11.1933981   9.6376032  )
        53           Au  tau(  53) = (  15.0484394  15.0484394   9.6376032  )
        54           Au  tau(  54) = (  15.0484394  18.9034806  13.4926445  )
        55           Au  tau(  55) = (  18.9034806  15.0484394  13.4926445  )
        56           Au  tau(  56) = (  18.9034806  18.9034806   9.6376032  )
        57           Au  tau(  57) = (  15.0484394  22.7585219   9.6376032  )
        58           Au  tau(  58) = (  15.0484394  26.6135632  13.4926445  )
        59           Au  tau(  59) = (  18.9034806  22.7585219  13.4926445  )
        60           Au  tau(  60) = (  18.9034806  26.6135632   9.6376032  )
        61           Au  tau(  61) = (  22.7585219   7.3383567   9.6376032  )
        62           Au  tau(  62) = (  22.7585219  11.1933981  13.4926445  )
        63           Au  tau(  63) = (  26.6135632   7.3383567  13.4926445  )
        64           Au  tau(  64) = (  26.6135632  11.1933981   9.6376032  )
        65           Au  tau(  65) = (  22.7585219  15.0484394   9.6376032  )
        66           Au  tau(  66) = (  22.7585219  18.9034806  13.4926445  )
        67           Au  tau(  67) = (  26.6135632  15.0484394  13.4926445  )
        68           Au  tau(  68) = (  26.6135632  18.9034806   9.6376032  )
        69           Au  tau(  69) = (  22.7585219  22.7585219   9.6376032  )
        70           Au  tau(  70) = (  22.7585219  26.6135632  13.4926445  )
        71           Au  tau(  71) = (  26.6135632  22.7585219  13.4926445  )
        72           Au  tau(  72) = (  26.6135632  26.6135632   9.6376032  )

   Crystallographic axes

     site n.     atom                  positions (cryst. coord.)
         1           Au  tau(   1) = (  0.2161397  0.2161397  0.1250000  )
         2           Au  tau(   2) = (  0.2161397  0.3296838  0.3750000  )
         3           Au  tau(   3) = (  0.3296838  0.2161397  0.3750000  )
         4           Au  tau(   4) = (  0.3296838  0.3296838  0.1250000  )
         5           Au  tau(   5) = (  0.2161397  0.4432279  0.1250000  )
         6           Au  tau(   6) = (  0.2161397  0.5567721  0.3750000  )
         7           Au  tau(   7) = (  0.3296838  0.4432279  0.3750000  )
         8           Au  tau(   8) = (  0.3296838  0.5567721  0.1250000  )
         9           Au  tau(   9) = (  0.2161397  0.6703162  0.1250000  )
        10           Au  tau(  10) = (  0.2161397  0.7838603  0.3750000  )
        11           Au  tau(  11) = (  0.3296838  0.6703162  0.3750000  )
        12           Au  tau(  12) = (  0.3296838  0.7838603  0.1250000  )
        13           Au  tau(  13) = (  0.4432279  0.2161397  0.1250000  )
        14           Au  tau(  14) = (  0.4432279  0.3296838  0.3750000  )
        15           Au  tau(  15) = (  0.5567721  0.2161397  0.3750000  )
        16           Au  tau(  16) = (  0.5567721  0.3296838  0.1250000  )
        17           Au  tau(  17) = (  0.4432279  0.4432279  0.1250000  )
        18           Au  tau(  18) = (  0.4432279  0.5567721  0.3750000  )
        19           Au  tau(  19) = (  0.5567721  0.4432279  0.3750000  )
        20           Au  tau(  20) = (  0.5567721  0.5567721  0.1250000  )
        21           Au  tau(  21) = (  0.4432279  0.6703162  0.1250000  )
        22           Au  tau(  22) = (  0.4432279  0.7838603  0.3750000  )
        23           Au  tau(  23) = (  0.5567721  0.6703162  0.3750000  )
        24           Au  tau(  24) = (  0.5567721  0.7838603  0.1250000  )
        25           Au  tau(  25) = (  0.6703162  0.2161397  0.1250000  )
        26           Au  tau(  26) = (  0.6703162  0.3296838  0.3750000  )
        27           Au  tau(  27) = (  0.7838603  0.2161397  0.3750000  )
        28           Au  tau(  28) = (  0.7838603  0.3296838  0.1250000  )
        29           Au  tau(  29) = (  0.6703162  0.4432279  0.1250000  )
        30           Au  tau(  30) = (  0.6703162  0.5567721  0.3750000  )
        31           Au  tau(  31) = (  0.7838603  0.4432279  0.3750000  )
        32           Au  tau(  32) = (  0.7838603  0.5567721  0.1250000  )
        33           Au  tau(  33) = (  0.6703162  0.6703162  0.1250000  )
        34           Au  tau(  34) = (  0.6703162  0.7838603  0.3750000  )
        35           Au  tau(  35) = (  0.7838603  0.6703162  0.3750000  )
        36           Au  tau(  36) = (  0.7838603  0.7838603  0.1250000  )
        37           Au  tau(  37) = (  0.2161397  0.2161397  0.6250000  )
        38           Au  tau(  38) = (  0.2161397  0.3296838  0.8750000  )
        39           Au  tau(  39) = (  0.3296838  0.2161397  0.8750000  )
        40           Au  tau(  40) = (  0.3296838  0.3296838  0.6250000  )
        41           Au  tau(  41) = (  0.2161397  0.4432279  0.6250000  )
        42           Au  tau(  42) = (  0.2161397  0.5567721  0.8750000  )
        43           Au  tau(  43) = (  0.3296838  0.4432279  0.8750000  )
        44           Au  tau(  44) = (  0.3296838  0.5567721  0.6250000  )
        45           Au  tau(  45) = (  0.2161397  0.6703162  0.6250000  )
        46           Au  tau(  46) = (  0.2161397  0.7838603  0.8750000  )
        47           Au  tau(  47) = (  0.3296838  0.6703162  0.8750000  )
        48           Au  tau(  48) = (  0.3296838  0.7838603  0.6250000  )
        49           Au  tau(  49) = (  0.4432279  0.2161397  0.6250000  )
        50           Au  tau(  50) = (  0.4432279  0.3296838  0.8750000  )
        51           Au  tau(  51) = (  0.5567721  0.2161397  0.8750000  )
        52           Au  tau(  52) = (  0.5567721  0.3296838  0.6250000  )
        53           Au  tau(  53) = (  0.4432279  0.4432279  0.6250000  )
        54           Au  tau(  54) = (  0.4432279  0.5567721  0.8750000  )
        55           Au  tau(  55) = (  0.5567721  0.4432279  0.8750000  )
        56           Au  tau(  56) = (  0.5567721  0.5567721  0.6250000  )
        57           Au  tau(  57) = (  0.4432279  0.6703162  0.6250000  )
        58           Au  tau(  58) = (  0.4432279  0.7838603  0.8750000  )
        59           Au  tau(  59) = (  0.5567721  0.6703162  0.8750000  )
        60           Au  tau(  60) = (  0.5567721  0.7838603  0.6250000  )
        61           Au  tau(  61) = (  0.6703162  0.2161397  0.6250000  )
        62           Au  tau(  62) = (  0.6703162  0.3296838  0.8750000  )
        63           Au  tau(  63) = (  0.7838603  0.2161397  0.8750000  )
        64           Au  tau(  64) = (  0.7838603  0.3296838  0.6250000  )
        65           Au  tau(  65) = (  0.6703162  0.4432279  0.6250000  )
        66           Au  tau(  66) = (  0.6703162  0.5567721  0.8750000  )
        67           Au  tau(  67) = (  0.7838603  0.4432279  0.8750000  )
        68           Au  tau(  68) = (  0.7838603  0.5567721  0.6250000  )
        69           Au  tau(  69) = (  0.6703162  0.6703162  0.6250000  )
        70           Au  tau(  70) = (  0.6703162  0.7838603  0.8750000  )
        71           Au  tau(  71) = (  0.7838603  0.6703162  0.8750000  )
        72           Au  tau(  72) = (  0.7838603  0.7838603  0.6250000  )

     number of k points=     2  Fermi-Dirac smearing, width (Ry)=  0.0020
                       cart. coord. in units 2pi/alat
        k(    1) = (   0.0000000   0.0000000   0.0081063), wk =   0.5000000
        k(    2) = (   0.0000000   0.0000000   0.0243188), wk =   0.5000000

                       cryst. coord.
        k(    1) = (   0.0000000   0.0000000   0.1250000), wk =   0.5000000
        k(    2) = (   0.0000000   0.0000000   0.3750000), wk =   0.5000000

     Dense  grid:  1718551 G-vectors     FFT dimensions: ( 200, 200,  90)

     Dynamical RAM for                 wfc:      11.23 MB

     Dynamical RAM for     wfc (w. buffer):      33.69 MB

     Dynamical RAM for           str. fact:       0.03 MB

     Dynamical RAM for           local pot:       0.00 MB

     Dynamical RAM for          nlocal pot:      11.76 MB

     Dynamical RAM for                qrad:       7.46 MB

     Dynamical RAM for          rho,v,vnew:       3.99 MB

     Dynamical RAM for               rhoin:       1.33 MB

     Dynamical RAM for            rho*nmix:       1.75 MB

     Dynamical RAM for           G-vectors:       0.12 MB

     Dynamical RAM for          h,s,v(r/c):       0.14 MB

     Dynamical RAM for          <psi|beta>:     174.02 MB

     Dynamical RAM for      wfcinit/wfcrot:      79.17 MB

     Estimated static dynamical RAM per process >      60.87 MB

     Estimated max dynamical RAM per process >     236.78 MB

     Estimated total dynamical RAM >     221.98 GB

     Initial potential from superposition of free atoms

     starting charge    1367.9917, renormalised to    1368.0000

     negative rho (up, down):  1.831E-06 0.000E+00
     Starting wfcs are random

     total cpu time spent up to now is       37.8 secs

     per-process dynamical memory:   612.0 Mb

     Self-consistent Calculation

     iteration #  1     ecut=    80.00 Ry     beta= 0.20
     CG style diagonalization

---- Real-time Memory Report at c_bands before calling an iterative solver
           653 MiB given to the printing process from OS
           597 MiB allocation reported by mallinfo(arena+hblkhd)
        171659 MiB available memory on the node where the printing process lives
------------------
     ethr =  1.00E-02,  avg # of iterations = 16.8

     Threshold (ethr) on eigenvalues was too large:
     Diagonalizing with lowered threshold

     CG style diagonalization

---- Real-time Memory Report at c_bands before calling an iterative solver
           668 MiB given to the printing process from OS
           610 MiB allocation reported by mallinfo(arena+hblkhd)
        170549 MiB available memory on the node where the printing process lives
------------------
     ethr =  4.27E-04,  avg # of iterations =  2.1

     negative rho (up, down):  1.017E-06 0.000E+00

     total cpu time spent up to now is     1448.8 secs

     total energy              =  -21268.05534669 Ry
     estimated scf accuracy    <       5.48815082 Ry

     iteration #  2     ecut=    80.00 Ry     beta= 0.20
     CG style diagonalization

---- Real-time Memory Report at c_bands before calling an iterative solver
           668 MiB given to the printing process from OS
           610 MiB allocation reported by mallinfo(arena+hblkhd)
        170535 MiB available memory on the node where the printing process lives
------------------
     ethr =  4.01E-04,  avg # of iterations =  3.0

     negative rho (up, down):  1.177E-03 0.000E+00

     total cpu time spent up to now is     1662.4 secs

     total energy              =  -21266.98823468 Ry
     estimated scf accuracy    <       2.98649276 Ry

     iteration #  3     ecut=    80.00 Ry     beta= 0.20
     CG style diagonalization

---- Real-time Memory Report at c_bands before calling an iterative solver
           669 MiB given to the printing process from OS
           610 MiB allocation reported by mallinfo(arena+hblkhd)
        170534 MiB available memory on the node where the printing process lives
------------------
     ethr =  2.18E-04,  avg # of iterations =  3.6

     negative rho (up, down):  2.095E-03 0.000E+00

     total cpu time spent up to now is     1897.7 secs

     total energy              =  -21267.65312116 Ry
     estimated scf accuracy    <       0.11277336 Ry

     iteration #  4     ecut=    80.00 Ry     beta= 0.20
     CG style diagonalization

---- Real-time Memory Report at c_bands before calling an iterative solver
           669 MiB given to the printing process from OS
           610 MiB allocation reported by mallinfo(arena+hblkhd)
        171074 MiB available memory on the node where the printing process lives
------------------
     c_bands:  2 eigenvalues not converged
     ethr =  8.24E-06,  avg # of iterations =  7.2

     negative rho (up, down):  5.746E-03 0.000E+00

     total cpu time spent up to now is     2343.4 secs

     total energy              =  -21267.65396266 Ry
     estimated scf accuracy    <       0.10142649 Ry

     iteration #  5     ecut=    80.00 Ry     beta= 0.20
     CG style diagonalization

---- Real-time Memory Report at c_bands before calling an iterative solver
           669 MiB given to the printing process from OS
           610 MiB allocation reported by mallinfo(arena+hblkhd)
        171069 MiB available memory on the node where the printing process lives
------------------
     ethr =  7.41E-06,  avg # of iterations =  3.5

     negative rho (up, down):  1.381E-02 0.000E+00

     total cpu time spent up to now is     2568.2 secs

     total energy              =  -21267.66370451 Ry
     estimated scf accuracy    <       0.07221567 Ry

     iteration #  6     ecut=    80.00 Ry     beta= 0.20
     CG style diagonalization

---- Real-time Memory Report at c_bands before calling an iterative solver
           670 MiB given to the printing process from OS
           610 MiB allocation reported by mallinfo(arena+hblkhd)
        171067 MiB available memory on the node where the printing process lives
------------------
     ethr =  5.28E-06,  avg # of iterations =  3.0

     negative rho (up, down):  1.616E-02 0.000E+00

     total cpu time spent up to now is     2754.6 secs

     total energy              =  -21267.66615170 Ry
     estimated scf accuracy    <       0.02092033 Ry

     iteration #  7     ecut=    80.00 Ry     beta= 0.20
     CG style diagonalization

---- Real-time Memory Report at c_bands before calling an iterative solver
           670 MiB given to the printing process from OS
           610 MiB allocation reported by mallinfo(arena+hblkhd)
        171031 MiB available memory on the node where the printing process lives
------------------
     ethr =  1.53E-06,  avg # of iterations =  3.0

     negative rho (up, down):  2.344E-02 0.000E+00

     total cpu time spent up to now is     2941.7 secs

     total energy              =  -21267.66675463 Ry
     estimated scf accuracy    <       0.01394041 Ry

     iteration #  8     ecut=    80.00 Ry     beta= 0.20
     CG style diagonalization

---- Real-time Memory Report at c_bands before calling an iterative solver
           670 MiB given to the printing process from OS
           610 MiB allocation reported by mallinfo(arena+hblkhd)
        171058 MiB available memory on the node where the printing process lives
------------------
     ethr =  1.02E-06,  avg # of iterations =  3.1

     total cpu time spent up to now is     3131.3 secs

     End of self-consistent calculation

          k = 0.0000 0.0000 0.0081 (214720 PWs)   bands (ev):

   -98.4006 -98.4006 -98.3972 -98.3972 -98.3956 -98.3956 -98.3945 -98.3945
   -98.3945 -98.3945 -98.3944 -98.3944 -98.3943 -98.3943 -98.3924 -98.3924
   -98.3357 -98.3357 -98.3351 -98.3351 -98.3349 -98.3349 -98.3342 -98.3342
   -98.3340 -98.3340 -98.3339 -98.3339 -98.3337 -98.3337 -98.3334 -98.3334
   -98.3322 -98.3322 -98.3319 -98.3319 -98.3317 -98.3317 -98.3316 -98.3316
   -98.3314 -98.3314 -98.3306 -98.3306 -98.3305 -98.3305 -98.3298 -98.3298
   -98.2497 -98.2497 -98.2497 -98.2497 -98.2495 -98.2495 -98.2495 -98.2495
   -98.2494 -98.2494 -98.2493 -98.2493 -98.2493 -98.2493 -98.2491 -98.2491
   -97.8336 -97.8336 -97.8335 -97.8335 -97.8335 -97.8335 -97.8335 -97.8335
   -97.8319 -97.8319 -97.8318 -97.8318 -97.8318 -97.8318 -97.8318 -97.8318
   -97.8311 -97.8311 -97.8310 -97.8310 -97.8310 -97.8310 -97.8310 -97.8310
   -97.8296 -97.8296 -97.8295 -97.8295 -97.8295 -97.8295 -97.8295 -97.8295
   -97.8009 -97.8009 -97.8009 -97.8009 -97.8008 -97.8008 -97.8008 -97.8008
   -97.8008 -97.8008 -97.8007 -97.8007 -97.8007 -97.8007 -97.8007 -97.8007
   -97.7989 -97.7989 -97.7988 -97.7988 -97.7988 -97.7988 -97.7988 -97.7988
   -97.7987 -97.7987 -97.7987 -97.7987 -97.7986 -97.7986 -97.7986 -97.7986
   -97.3695 -97.3695 -97.3694 -97.3694 -97.3694 -97.3694 -97.3693 -97.3693
   -97.3693 -97.3693 -97.3692 -97.3692 -97.3692 -97.3692 -97.3690 -97.3690
   -62.0904 -62.0904 -62.0847 -62.0847 -62.0846 -62.0846 -62.0836 -62.0836
   -62.0835 -62.0835 -62.0787 -62.0787 -62.0737 -62.0737 -62.0651 -62.0651
   -62.0283 -62.0283 -62.0258 -62.0258 -62.0257 -62.0257 -62.0226 -62.0226
   -62.0218 -62.0218 -62.0211 -62.0211 -62.0210 -62.0210 -62.0197 -62.0197
   -62.0151 -62.0151 -62.0140 -62.0140 -62.0135 -62.0135 -62.0134 -62.0134
   -62.0116 -62.0116 -62.0088 -62.0088 -62.0087 -62.0087 -62.0042 -62.0042
   -61.9358 -61.9358 -61.9358 -61.9358 -61.9356 -61.9356 -61.9355 -61.9355
   -61.9347 -61.9347 -61.9345 -61.9345 -61.9344 -61.9344 -61.9342 -61.9342
   -61.5219 -61.5219 -61.5218 -61.5218 -61.5217 -61.5217 -61.5216 -61.5216
   -61.5149 -61.5148 -61.5148 -61.5148 -61.5147 -61.5146 -61.5146 -61.5146
   -61.5120 -61.5119 -61.5119 -61.5119 -61.5118 -61.5118 -61.5117 -61.5117
   -61.5081 -61.5081 -61.5079 -61.5079 -61.5078 -61.5078 -61.5076 -61.5076
   -61.4863 -61.4863 -61.4863 -61.4863 -61.4863 -61.4863 -61.4862 -61.4862
   -61.4848 -61.4848 -61.4843 -61.4843 -61.4843 -61.4843 -61.4838 -61.4838
   -61.4789 -61.4789 -61.4789 -61.4789 -61.4789 -61.4789 -61.4789 -61.4789
   -61.4776 -61.4776 -61.4773 -61.4773 -61.4772 -61.4772 -61.4769 -61.4769
   -61.0561 -61.0561 -61.0560 -61.0559 -61.0559 -61.0559 -61.0558 -61.0558
   -61.0557 -61.0557 -61.0556 -61.0556 -61.0555 -61.0555 -61.0554 -61.0554
   -45.6411 -45.6411 -45.6320 -45.6320 -45.6290 -45.6290 -45.6274 -45.6273
   -45.6272 -45.6272 -45.6243 -45.6242 -45.6186 -45.6186 -45.6066 -45.6066
   -45.5959 -45.5959 -45.5956 -45.5955 -45.5842 -45.5841 -45.5816 -45.5816
   -45.5774 -45.5774 -45.5699 -45.5698 -45.5695 -45.5695 -45.5579 -45.5579
   -45.5560 -45.5559 -45.5518 -45.5518 -45.5482 -45.5482 -45.5471 -45.5470
   -45.5432 -45.5432 -45.5416 -45.5416 -45.5390 -45.5390 -45.5372 -45.5371
   -45.5243 -45.5242 -45.5206 -45.5206 -45.5180 -45.5180 -45.5135 -45.5135
   -45.5131 -45.5131 -45.5121 -45.5121 -45.5108 -45.5108 -45.5105 -45.5105
   -45.5020 -45.5020 -45.5012 -45.5012 -45.4957 -45.4957 -45.4924 -45.4924
   -45.4870 -45.4870 -45.4858 -45.4858 -45.4835 -45.4835 -45.4822 -45.4821
   -45.4783 -45.4783 -45.4761 -45.4760 -45.4741 -45.4740 -45.4676 -45.4676
   -45.4676 -45.4675 -45.4637 -45.4637 -45.4633 -45.4632 -45.4605 -45.4605
   -45.4262 -45.4261 -45.4259 -45.4258 -45.4245 -45.4244 -45.4238 -45.4237
   -45.4228 -45.4227 -45.4200 -45.4199 -45.4195 -45.4194 -45.4189 -45.4188
   -45.4163 -45.4161 -45.4135 -45.4134 -45.4118 -45.4118 -45.4116 -45.4115
   -45.4114 -45.4114 -45.4067 -45.4067 -45.4063 -45.4062 -45.4010 -45.4009
   -45.0745 -45.0745 -45.0735 -45.0735 -45.0716 -45.0716 -45.0701 -45.0701
   -45.0450 -45.0450 -45.0442 -45.0441 -45.0436 -45.0436 -45.0422 -45.0422
   -45.0402 -45.0402 -45.0395 -45.0395 -45.0382 -45.0381 -45.0340 -45.0340
   -45.0337 -45.0337 -45.0310 -45.0310 -45.0258 -45.0258 -45.0225 -45.0225
   -45.0173 -45.0173 -45.0143 -45.0143 -45.0103 -45.0103 -45.0076 -45.0076
   -45.0010 -45.0010 -45.0002 -45.0002 -44.9972 -44.9972 -44.9923 -44.9923
   -44.9922 -44.9922 -44.9899 -44.9899 -44.9849 -44.9849 -44.9846 -44.9846
   -44.9839 -44.9838 -44.9830 -44.9830 -44.9814 -44.9814 -44.9780 -44.9780
   -44.9709 -44.9709 -44.9685 -44.9685 -44.9677 -44.9677 -44.9662 -44.9662
   -44.9656 -44.9656 -44.9634 -44.9634 -44.9624 -44.9624 -44.9618 -44.9618
   -44.9612 -44.9612 -44.9606 -44.9606 -44.9582 -44.9581 -44.9574 -44.9574
   -44.9567 -44.9567 -44.9566 -44.9566 -44.9560 -44.9560 -44.9553 -44.9553
   -44.9533 -44.9533 -44.9522 -44.9522 -44.9517 -44.9517 -44.9513 -44.9513
   -44.9485 -44.9485 -44.9476 -44.9476 -44.9468 -44.9467 -44.9464 -44.9464
   -44.9244 -44.9244 -44.9238 -44.9238 -44.9232 -44.9232 -44.9230 -44.9230
   -44.9213 -44.9213 -44.9211 -44.9211 -44.9205 -44.9205 -44.9197 -44.9197
   -44.5639 -44.5638 -44.5637 -44.5636 -44.5635 -44.5634 -44.5633 -44.5632
   -44.5620 -44.5619 -44.5618 -44.5617 -44.5616 -44.5615 -44.5614 -44.5613
   -44.5318 -44.5317 -44.5316 -44.5316 -44.5311 -44.5310 -44.5309 -44.5309
   -44.5309 -44.5307 -44.5307 -44.5306 -44.5302 -44.5301 -44.5300 -44.5299
    -2.2822  -2.2822  -1.4511  -1.4511  -1.4466  -1.4466  -0.6966  -0.6966
    -0.5235  -0.5235  -0.3853  -0.3853  -0.3510  -0.3510  -0.1897  -0.1897
    -0.1885  -0.1885  -0.1604  -0.1604  -0.0820  -0.0820   0.0524   0.0524
     0.0563   0.0563   0.0871   0.0871   0.0875   0.0875   0.1340   0.1340
     0.1727   0.1727   0.2158   0.2158   0.2527   0.2527   0.3329   0.3329
     0.3393   0.3393   0.3468   0.3468   0.3557   0.3557   0.3784   0.3784
     0.3811   0.3811   0.3865   0.3865   0.3879   0.3879   0.4929   0.4929
     0.5899   0.5899   0.5928   0.5928   0.6034   0.6034   0.6054   0.6054
     0.6071   0.6071   0.6182   0.6182   0.6196   0.6196   0.6328   0.6328
     0.6596   0.6596   0.6668   0.6668   0.6936   0.6936   0.6938   0.6938
     0.7853   0.7853   0.8178   0.8178   0.8240   0.8240   0.8394   0.8394
     0.8665   0.8666   0.8886   0.8886   0.8951   0.8951   0.9165   0.9165
     0.9269   0.9269   0.9360   0.9360   0.9601   0.9601   0.9854   0.9854
     1.0097   1.0097   1.0362   1.0362   1.0436   1.0436   1.0448   1.0448
     1.0538   1.0538   1.0640   1.0640   1.0748   1.0748   1.0750   1.0750
     1.1098   1.1099   1.1247   1.1248   1.1254   1.1254   1.1384   1.1384
     1.1565   1.1565   1.1917   1.1917   1.2117   1.2117   1.2446   1.2446
     1.2511   1.2511   1.2517   1.2517   1.2812   1.2812   1.2927   1.2927
     1.3403   1.3403   1.3408   1.3408   1.3791   1.3791   1.3869   1.3869
     1.4221   1.4221   1.4238   1.4238   1.4342   1.4343   1.4461   1.4461
     1.4502   1.4502   1.4548   1.4548   1.4639   1.4639   1.4779   1.4779
     1.5058   1.5058   1.5210   1.5211   1.5255   1.5255   1.5300   1.5300
     1.5452   1.5452   1.5573   1.5573   1.5666   1.5666   1.5898   1.5898
     1.6035   1.6035   1.6055   1.6055   1.6312   1.6312   1.6599   1.6599
     1.6923   1.6923   1.7076   1.7076   1.7076   1.7077   1.7099   1.7100
     1.7301   1.7302   1.7532   1.7532   1.7595   1.7595   1.7700   1.7700
     1.7848   1.7848   1.7990   1.7990   1.8032   1.8032   1.8210   1.8210
     1.8584   1.8584   1.8677   1.8677   1.8785   1.8786   1.8799   1.8799
     1.8956   1.8956   1.8959   1.8959   1.8965   1.8965   1.9063   1.9063
     1.9236   1.9236   1.9327   1.9327   1.9358   1.9358   1.9591   1.9591
     1.9603   1.9603   1.9669   1.9670   1.9928   1.9928   1.9993   1.9993
     2.0279   2.0279   2.0307   2.0307   2.0427   2.0427   2.0477   2.0477
     2.0814   2.0814   2.1170   2.1170   2.1513   2.1513   2.1523   2.1523
     2.1769   2.1769   2.1888   2.1888   2.1931   2.1931   2.1954   2.1954
     2.2191   2.2191   2.2191   2.2191   2.2352   2.2352   2.2542   2.2542
     2.2643   2.2643   2.2864   2.2865   2.3048   2.3048   2.3245   2.3245
     2.3487   2.3487   2.3609   2.3609   2.3855   2.3855   2.3971   2.3971
     2.4061   2.4061   2.4062   2.4062   2.4094   2.4094   2.4384   2.4385
     2.4634   2.4634   2.4773   2.4773   2.4807   2.4807   2.4881   2.4881
     2.5219   2.5219   2.5791   2.5791   2.5880   2.5880   2.5913   2.5913
     2.5931   2.5931   2.5997   2.5997   2.6214   2.6214   2.6364   2.6364
     2.6525   2.6525   2.6635   2.6635   2.6719   2.6719   2.7248   2.7248
     2.7367   2.7367   2.7411   2.7412   2.7799   2.7799   2.7860   2.7860
     2.7953   2.7953   2.8127   2.8127   2.8525   2.8525   2.8540   2.8540
     2.8914   2.8914   2.8925   2.8925   2.9230   2.9230   2.9523   2.9523
     2.9754   2.9754   2.9896   2.9896   3.0308   3.0308   3.0314   3.0314
     3.0378   3.0378   3.0819   3.0819   3.1062   3.1062   3.1525   3.1525
     3.1538   3.1538   3.1705   3.1705   3.2033   3.2033   3.2039   3.2039
     3.2725   3.2725   3.2853   3.2853   3.3032   3.3032   3.3239   3.3239
     3.3376   3.3376   3.3450   3.3450   3.3648   3.3648   3.4410   3.4410
     3.4572   3.4572   3.4604   3.4604   3.4658   3.4658   3.4729   3.4729
     3.4827   3.4827   3.5184   3.5184   3.5248   3.5248   3.5307   3.5307
     3.5364   3.5364   3.5405   3.5405   3.5486   3.5486   3.5580   3.5580
     3.5698   3.5698   3.5931   3.5931   3.6065   3.6065   3.6204   3.6204
     3.6227   3.6227   3.6464   3.6464   3.6647   3.6648   3.6704   3.6704
     3.6968   3.6968   3.7004   3.7004   3.7095   3.7095   3.7251   3.7251
     3.7352   3.7352   3.7516   3.7516   3.7955   3.7955   3.8017   3.8017
     3.8175   3.8175   3.8242   3.8242   3.8318   3.8318   3.8365   3.8365
     3.8672   3.8672   3.8724   3.8725   3.8844   3.8844   3.8875   3.8875
     3.9069   3.9069   3.9458   3.9458   3.9459   3.9459   3.9593   3.9593
     3.9748   3.9748   3.9831   3.9831   3.9911   3.9911   3.9947   3.9947
     4.0099   4.0099   4.0227   4.0227   4.0469   4.0469   4.0520   4.0520
     4.0655   4.0656   4.0665   4.0665   4.0825   4.0825   4.0881   4.0881
     4.0975   4.0975   4.1030   4.1030   4.1296   4.1296   4.1446   4.1446
     4.1585   4.1585   4.1598   4.1598   4.1674   4.1674   4.1944   4.1944
     4.2024   4.2024   4.2035   4.2035   4.2168   4.2168   4.2259   4.2259
     4.2330   4.2330   4.2401   4.2401   4.2436   4.2436   4.2569   4.2570
     4.2591   4.2592   4.2826   4.2826   4.2893   4.2893   4.3050   4.3050
     4.3112   4.3112   4.3137   4.3137   4.3463   4.3463   4.3659   4.3659
     4.3834   4.3834   4.3854   4.3854   4.3899   4.3899   4.3993   4.3993
     4.4077   4.4077   4.4131   4.4131   4.4152   4.4152   4.4361   4.4361
     4.4382   4.4382   4.4462   4.4463   4.4696   4.4696   4.5060   4.5060
     4.5205   4.5205   4.5232   4.5232   4.5258   4.5258   4.5476   4.5476
     4.5491   4.5491   4.5601   4.5601   4.5720   4.5720   4.5851   4.5851
     4.5857   4.5857   4.5998   4.5998   4.6080   4.6080   4.6090   4.6090
     4.6155   4.6155   4.6436   4.6436   4.6637   4.6637   4.6702   4.6702
     4.6739   4.6739   4.6851   4.6851   4.6915   4.6915   4.6935   4.6935
     4.6951   4.6951   4.7042   4.7042   4.7232   4.7232   4.7329   4.7329
     4.7414   4.7414   4.7532   4.7532   4.7559   4.7559   4.7668   4.7668
     4.7865   4.7865   4.7877   4.7877   4.8006   4.8006   4.8025   4.8025
     4.8106   4.8107   4.8410   4.8410   4.8413   4.8413   4.8689   4.8689
     4.8706   4.8706   4.8771   4.8771   4.8876   4.8876   4.9177   4.9177
     4.9297   4.9297   4.9514   4.9514   4.9537   4.9537   4.9672   4.9672
     5.0136   5.0136   5.0251   5.0251   5.0377   5.0377   5.0429   5.0429
     5.0466   5.0466   5.0511   5.0511   5.0586   5.0586   5.0676   5.0676
     5.0774   5.0774   5.0814   5.0814   5.1016   5.1016   5.1111   5.1111
     5.1276   5.1276   5.1311   5.1311   5.1382   5.1382   5.1486   5.1486
     5.1517   5.1517   5.1782   5.1782   5.2025   5.2026   5.2029   5.2030
     5.2146   5.2146   5.2445   5.2445   5.2516   5.2516   5.2908   5.2908
     5.2915   5.2916   5.3033   5.3033   5.3129   5.3129   5.3439   5.3440
     5.3591   5.3592   5.3846   5.3846   5.3849   5.3849   5.3952   5.3952
     5.4159   5.4160   5.4187   5.4187   5.4395   5.4395   5.4726   5.4726
     5.5119   5.5119   5.5484   5.5484   5.5808   5.5808   5.6089   5.6089
     5.6446   5.6446   5.6462   5.6462   5.6600   5.6601   5.6754   5.6754
     5.7019   5.7019   5.7100   5.7100   5.7351   5.7351   5.7382   5.7382
     5.7531   5.7531   5.7900   5.7900   5.8078   5.8078   5.8313   5.8313
     5.9393   5.9393   5.9936   5.9937   6.0137   6.0137   6.2054   6.2054
     6.2195   6.2195   6.3682   6.3682   6.4650   6.4650   6.5846   6.5846
     6.6629   6.6629   6.6747   6.6747   6.7062   6.7062   6.7547   6.7547
     6.7931   6.7931   6.8141   6.8141   6.8367   6.8367   7.0254   7.0254
     7.3307   7.3307   7.3739   7.3739   7.4505   7.4505   7.5275   7.5275
     7.6652   7.6652   7.6805   7.6805   7.7363   7.7363   7.7587   7.7587
     7.7746   7.7746   7.7956   7.7956   8.0222   8.0223   8.1341   8.1341
     8.2360   8.2360   8.3423   8.3423   8.5617   8.5617   8.6230   8.6230
     8.6630   8.6630   8.6889   8.6889   8.6997   8.6997   8.7196   8.7196
     8.7976   8.7976   8.8249   8.8249   8.8774   8.8774   8.9599   8.9599
     8.9873   8.9874   8.9889   8.9889   8.9918   8.9918   9.2036   9.2036
     9.2305   9.2305   9.6323   9.6323   9.6533   9.6533   9.6873   9.6873
     9.7718   9.7718   9.8392   9.8393   9.8694   9.8694   9.8824   9.8824
     9.9881   9.9881   9.9932   9.9932  10.0758  10.0758  10.0954  10.0954
    10.1737  10.1737  10.4379  10.4379  10.5735  10.5735  10.6045  10.6045
    10.6577  10.6577  11.0290  11.0290  11.0384  11.0384  11.1303  11.1303
    11.2226  11.2226  11.2862  11.2862  11.3689  11.3689  11.4124  11.4124
    11.4226  11.4226  11.4416  11.4416  11.6200  11.6200  11.6780  11.6780
    11.7001  11.7001  11.7527  11.7527  11.7709  11.7709  11.7840  11.7840
    11.8664  11.8664  11.9164  11.9164  11.9256  11.9256  11.9851  11.9851
    12.0464  12.0464  12.1124  12.1124  12.1184  12.1184  12.4341  12.4341
    12.4677  12.4678  12.4872  12.4873  12.5153  12.5153  12.5851  12.5851
    12.6375  12.6375  12.6761  12.6761  12.7206  12.7206  12.7581  12.7581
    12.7749  12.7749  12.8271  12.8271  12.8836  12.8836  12.9037  12.9037
    12.9770  12.9770  13.0617  13.0618  13.1701  13.1701  13.1877  13.1877
    13.1941  13.1941  13.2091  13.2091  13.3646  13.3646  13.3857  13.3858
    13.4067  13.4067  13.4153  13.4153  13.4601  13.4601  13.4682  13.4682
    13.5197  13.5197  13.5671  13.5671  13.5750  13.5750  13.5884  13.5884
    13.7527  13.7527  13.8319  13.8319  13.8616  13.8616  13.9492  13.9493
    14.0131  14.0131  14.0173  14.0173  14.0745  14.0745  14.1234  14.1234
    14.1842  14.1842  14.2399  14.2399  14.2420  14.2420  14.2976  14.2976
    14.3003  14.3003  14.3142  14.3142  14.4191  14.4191  14.4525  14.4525
    14.5520  14.5520  14.5660  14.5661  14.5672  14.5672  14.6608  14.6608
    14.6908  14.6908  14.7910  14.7910  14.7961  14.7962  14.8460  14.8460
    14.8810  14.8809  14.9553  14.9552  14.9572  14.9573  14.9802  14.9802
    14.9931  14.9930  15.0129  15.0130  15.0178  15.0177  15.0195  15.0195
    15.0402  15.0403  15.2138  15.2137  15.2162  15.2163  15.2508  15.2510
    15.2808  15.2807  15.3064  15.3069  15.3250  15.3253  15.3584  15.3586
    15.4053  15.4055

     occupation numbers 
     1.0000   1.0000   1.0000   1.0000   1.0000   1.0000   1.0000   1.0000
     1.0000   1.0000   1.0000   1.0000   1.0000   1.0000   1.0000   1.0000
     1.0000   1.0000   1.0000   1.0000   1.0000   1.0000   1.0000   1.0000
     1.0000   1.0000   1.0000   1.0000   1.0000   1.0000   1.0000   1.0000
     1.0000   1.0000   1.0000   1.0000   1.0000   1.0000   1.0000   1.0000
     1.0000   1.0000   1.0000   1.0000   1.0000   1.0000   1.0000   1.0000
     1.0000   1.0000   1.0000   1.0000   1.0000   1.0000   1.0000   1.0000
     1.0000   1.0000   1.0000   1.0000   1.0000   1.0000   1.0000   1.0000
     1.0000   1.0000   1.0000   1.0000   1.0000   1.0000   1.0000   1.0000
     1.0000   1.0000   1.0000   1.0000   1.0000   1.0000   1.0000   1.0000
     1.0000   1.0000   1.0000   1.0000   1.0000   1.0000   1.0000   1.0000
     1.0000   1.0000   1.0000   1.0000   1.0000   1.0000   1.0000   1.0000
     1.0000   1.0000   1.0000   1.0000   1.0000   1.0000   1.0000   1.0000
     1.0000   1.0000   1.0000   1.0000   1.0000   1.0000   1.0000   1.0000
     1.0000   1.0000   1.0000   1.0000   1.0000   1.0000   1.0000   1.0000
     1.0000   1.0000   1.0000   1.0000   1.0000   1.0000   1.0000   1.0000
     1.0000   1.0000   1.0000   1.0000   1.0000   1.0000   1.0000   1.0000
     1.0000   1.0000   1.0000   1.0000   1.0000   1.0000   1.0000   1.0000
     1.0000   1.0000   1.0000   1.0000   1.0000   1.0000   1.0000   1.0000
     1.0000   1.0000   1.0000   1.0000   1.0000   1.0000   1.0000   1.0000
     1.0000   1.0000   1.0000   1.0000   1.0000   1.0000   1.0000   1.0000
     1.0000   1.0000   1.0000   1.0000   1.0000   1.0000   1.0000   1.0000
     1.0000   1.0000   1.0000   1.0000   1.0000   1.0000   1.0000   1.0000
     1.0000   1.0000   1.0000   1.0000   1.0000   1.0000   1.0000   1.0000
     1.0000   1.0000   1.0000   1.0000   1.0000   1.0000   1.0000   1.0000
     1.0000   1.0000   1.0000   1.0000   1.0000   1.0000   1.0000   1.0000
     1.0000   1.0000   1.0000   1.0000   1.0000   1.0000   1.0000   1.0000
     1.0000   1.0000   1.0000   1.0000   1.0000   1.0000   1.0000   1.0000
     1.0000   1.0000   1.0000   1.0000   1.0000   1.0000   1.0000   1.0000
     1.0000   1.0000   1.0000   1.0000   1.0000   1.0000   1.0000   1.0000
     1.0000   1.0000   1.0000   1.0000   1.0000   1.0000   1.0000   1.0000
     1.0000   1.0000   1.0000   1.0000   1.0000   1.0000   1.0000   1.0000
     1.0000   1.0000   1.0000   1.0000   1.0000   1.0000   1.0000   1.0000
     1.0000   1.0000   1.0000   1.0000   1.0000   1.0000   1.0000   1.0000
     1.0000   1.0000   1.0000   1.0000   1.0000   1.0000   1.0000   1.0000
     1.0000   1.0000   1.0000   1.0000   1.0000   1.0000   1.0000   1.0000
     1.0000   1.0000   1.0000   1.0000   1.0000   1.0000   1.0000   1.0000
     1.0000   1.0000   1.0000   1.0000   1.0000   1.0000   1.0000   1.0000
     1.0000   1.0000   1.0000   1.0000   1.0000   1.0000   1.0000   1.0000
     1.0000   1.0000   1.0000   1.0000   1.0000   1.0000   1.0000   1.0000
     1.0000   1.0000   1.0000   1.0000   1.0000   1.0000   1.0000   1.0000
     1.0000   1.0000   1.0000   1.0000   1.0000   1.0000   1.0000   1.0000
     1.0000   1.0000   1.0000   1.0000   1.0000   1.0000   1.0000   1.0000
     1.0000   1.0000   1.0000   1.0000   1.0000   1.0000   1.0000   1.0000
     1.0000   1.0000   1.0000   1.0000   1.0000   1.0000   1.0000   1.0000
     1.0000   1.0000   1.0000   1.0000   1.0000   1.0000   1.0000   1.0000
     1.0000   1.0000   1.0000   1.0000   1.0000   1.0000   1.0000   1.0000
     1.0000   1.0000   1.0000   1.0000   1.0000   1.0000   1.0000   1.0000
     1.0000   1.0000   1.0000   1.0000   1.0000   1.0000   1.0000   1.0000
     1.0000   1.0000   1.0000   1.0000   1.0000   1.0000   1.0000   1.0000
     1.0000   1.0000   1.0000   1.0000   1.0000   1.0000   1.0000   1.0000
     1.0000   1.0000   1.0000   1.0000   1.0000   1.0000   1.0000   1.0000
     1.0000   1.0000   1.0000   1.0000   1.0000   1.0000   1.0000   1.0000
     1.0000   1.0000   1.0000   1.0000   1.0000   1.0000   1.0000   1.0000
     1.0000   1.0000   1.0000   1.0000   1.0000   1.0000   1.0000   1.0000
     1.0000   1.0000   1.0000   1.0000   1.0000   1.0000   1.0000   1.0000
     1.0000   1.0000   1.0000   1.0000   1.0000   1.0000   1.0000   1.0000
     1.0000   1.0000   1.0000   1.0000   1.0000   1.0000   1.0000   1.0000
     1.0000   1.0000   1.0000   1.0000   1.0000   1.0000   1.0000   1.0000
     1.0000   1.0000   1.0000   1.0000   1.0000   1.0000   1.0000   1.0000
     1.0000   1.0000   1.0000   1.0000   1.0000   1.0000   1.0000   1.0000
     1.0000   1.0000   1.0000   1.0000   1.0000   1.0000   1.0000   1.0000
     1.0000   1.0000   1.0000   1.0000   1.0000   1.0000   1.0000   1.0000
     1.0000   1.0000   1.0000   1.0000   1.0000   1.0000   1.0000   1.0000
     1.0000   1.0000   1.0000   1.0000   1.0000   1.0000   1.0000   1.0000
     1.0000   1.0000   1.0000   1.0000   1.0000   1.0000   1.0000   1.0000
     1.0000   1.0000   1.0000   1.0000   1.0000   1.0000   1.0000   1.0000
     1.0000   1.0000   1.0000   1.0000   1.0000   1.0000   1.0000   1.0000
     1.0000   1.0000   1.0000   1.0000   1.0000   1.0000   1.0000   1.0000
     1.0000   1.0000   1.0000   1.0000   1.0000   1.0000   1.0000   1.0000
     1.0000   1.0000   1.0000   1.0000   1.0000   1.0000   1.0000   1.0000
     1.0000   1.0000   1.0000   1.0000   1.0000   1.0000   1.0000   1.0000
     1.0000   1.0000   1.0000   1.0000   1.0000   1.0000   1.0000   1.0000
     1.0000   1.0000   1.0000   1.0000   1.0000   1.0000   1.0000   1.0000
     1.0000   1.0000   1.0000   1.0000   1.0000   1.0000   1.0000   1.0000
     1.0000   1.0000   1.0000   1.0000   1.0000   1.0000   1.0000   1.0000
     1.0000   1.0000   1.0000   1.0000   1.0000   1.0000   1.0000   1.0000
     1.0000   1.0000   1.0000   1.0000   1.0000   1.0000   1.0000   1.0000
     1.0000   1.0000   1.0000   1.0000   1.0000   1.0000   1.0000   1.0000
     1.0000   1.0000   1.0000   1.0000   1.0000   1.0000   1.0000   1.0000
     1.0000   1.0000   1.0000   1.0000   1.0000   1.0000   1.0000   1.0000
     1.0000   1.0000   1.0000   1.0000   1.0000   1.0000   1.0000   1.0000
     1.0000   1.0000   1.0000   1.0000   1.0000   1.0000   1.0000   1.0000
     1.0000   1.0000   1.0000   1.0000   1.0000   1.0000   1.0000   1.0000
     1.0000   1.0000   1.0000   1.0000   1.0000   1.0000   1.0000   1.0000
     1.0000   1.0000   1.0000   1.0000   1.0000   1.0000   1.0000   1.0000
     1.0000   1.0000   1.0000   1.0000   1.0000   1.0000   1.0000   1.0000
     1.0000   1.0000   1.0000   1.0000   1.0000   1.0000   1.0000   1.0000
     1.0000   1.0000   1.0000   1.0000   1.0000   1.0000   1.0000   1.0000
     1.0000   1.0000   1.0000   1.0000   1.0000   1.0000   1.0000   1.0000
     1.0000   1.0000   1.0000   1.0000   1.0000   1.0000   1.0000   1.0000
     1.0000   1.0000   1.0000   1.0000   1.0000   1.0000   1.0000   1.0000
     1.0000   1.0000   1.0000   1.0000   1.0000   1.0000   1.0000   1.0000
     1.0000   1.0000   1.0000   1.0000   1.0000   1.0000   1.0000   1.0000
     1.0000   1.0000   1.0000   1.0000   1.0000   1.0000   1.0000   1.0000
     1.0000   1.0000   1.0000   1.0000   1.0000   1.0000   1.0000   1.0000
     1.0000   1.0000   1.0000   1.0000   1.0000   1.0000   1.0000   1.0000
     1.0000   1.0000   1.0000   1.0000   1.0000   1.0000   1.0000   1.0000
     1.0000   1.0000   1.0000   1.0000   1.0000   1.0000   1.0000   1.0000
     1.0000   1.0000   1.0000   1.0000   1.0000   1.0000   1.0000   1.0000
     1.0000   1.0000   1.0000   1.0000   1.0000   1.0000   1.0000   1.0000
     1.0000   1.0000   1.0000   1.0000   1.0000   1.0000   1.0000   1.0000
     1.0000   1.0000   1.0000   1.0000   1.0000   1.0000   1.0000   1.0000
     1.0000   1.0000   1.0000   1.0000   1.0000   1.0000   1.0000   1.0000
     1.0000   1.0000   1.0000   1.0000   1.0000   1.0000   1.0000   1.0000
     1.0000   1.0000   1.0000   1.0000   1.0000   1.0000   1.0000   1.0000
     1.0000   1.0000   1.0000   1.0000   1.0000   1.0000   1.0000   1.0000
     1.0000   1.0000   1.0000   1.0000   1.0000   1.0000   1.0000   1.0000
     1.0000   1.0000   1.0000   1.0000   1.0000   1.0000   1.0000   1.0000
     1.0000   1.0000   1.0000   1.0000   1.0000   1.0000   1.0000   1.0000
     1.0000   1.0000   1.0000   1.0000   1.0000   1.0000   1.0000   1.0000
     1.0000   1.0000   1.0000   1.0000   1.0000   1.0000   1.0000   1.0000
     1.0000   1.0000   1.0000   1.0000   1.0000   1.0000   1.0000   1.0000
     1.0000   1.0000   1.0000   1.0000   1.0000   1.0000   1.0000   1.0000
     1.0000   1.0000   1.0000   1.0000   1.0000   1.0000   1.0000   1.0000
     1.0000   1.0000   1.0000   1.0000   1.0000   1.0000   1.0000   1.0000
     1.0000   1.0000   1.0000   1.0000   1.0000   1.0000   1.0000   1.0000
     1.0000   1.0000   1.0000   1.0000   1.0000   1.0000   1.0000   1.0000
     1.0000   1.0000   1.0000   1.0000   1.0000   1.0000   1.0000   1.0000
     1.0000   1.0000   1.0000   1.0000   1.0000   1.0000   1.0000   1.0000
     1.0000   1.0000   1.0000   1.0000   1.0000   1.0000   1.0000   1.0000
     1.0000   1.0000   1.0000   1.0000   1.0000   1.0000   1.0000   1.0000
     1.0000   1.0000   1.0000   1.0000   1.0000   1.0000   1.0000   1.0000
     1.0000   1.0000   1.0000   1.0000   1.0000   1.0000   1.0000   1.0000
     1.0000   1.0000   1.0000   1.0000   1.0000   1.0000   1.0000   1.0000
     1.0000   1.0000   1.0000   1.0000   1.0000   1.0000   1.0000   1.0000
     1.0000   1.0000   1.0000   1.0000   1.0000   1.0000   1.0000   1.0000
     1.0000   1.0000   1.0000   1.0000   1.0000   1.0000   1.0000   1.0000
     1.0000   1.0000   1.0000   1.0000   1.0000   1.0000   1.0000   1.0000
     1.0000   1.0000   1.0000   1.0000   1.0000   1.0000   1.0000   1.0000
     1.0000   1.0000   1.0000   1.0000   1.0000   1.0000   1.0000   1.0000
     1.0000   1.0000   1.0000   1.0000   1.0000   1.0000   1.0000   1.0000
     1.0000   1.0000   1.0000   1.0000   1.0000   1.0000   1.0000   1.0000
     1.0000   1.0000   1.0000   1.0000   1.0000   1.0000   1.0000   1.0000
     1.0000   1.0000   1.0000   1.0000   1.0000   1.0000   1.0000   1.0000
     1.0000   1.0000   1.0000   1.0000   1.0000   1.0000   1.0000   1.0000
     1.0000   1.0000   1.0000   1.0000   1.0000   1.0000   1.0000   1.0000
     1.0000   1.0000   1.0000   1.0000   1.0000   1.0000   1.0000   1.0000
     1.0000   1.0000   1.0000   1.0000   1.0000   1.0000   1.0000   1.0000
     1.0000   1.0000   1.0000   1.0000   1.0000   1.0000   1.0000   1.0000
     1.0000   1.0000   1.0000   1.0000   1.0000   1.0000   1.0000   1.0000
     1.0000   1.0000   1.0000   1.0000   1.0000   1.0000   1.0000   1.0000
     1.0000   1.0000   1.0000   1.0000   1.0000   1.0000   1.0000   1.0000
     1.0000   1.0000   1.0000   1.0000   1.0000   1.0000   1.0000   1.0000
     1.0000   1.0000   1.0000   1.0000   1.0000   1.0000   1.0000   1.0000
     1.0000   1.0000   1.0000   1.0000   1.0000   1.0000   1.0000   1.0000
     1.0000   1.0000   1.0000   1.0000   1.0000   1.0000   1.0000   1.0000
     1.0000   1.0000   1.0000   1.0000   1.0000   1.0000   1.0000   1.0000
     1.0000   1.0000   1.0000   1.0000   1.0000   1.0000   1.0000   1.0000
     1.0000   1.0000   1.0000   1.0000   1.0000   1.0000   1.0000   1.0000
     1.0000   1.0000   1.0000   1.0000   1.0000   1.0000   1.0000   1.0000
     1.0000   1.0000   1.0000   1.0000   1.0000   1.0000   1.0000   1.0000
     1.0000   1.0000   1.0000   1.0000   1.0000   1.0000   1.0000   1.0000
     1.0000   1.0000   1.0000   1.0000   1.0000   1.0000   1.0000   1.0000
     1.0000   1.0000   1.0000   1.0000   1.0000   1.0000   1.0000   1.0000
     1.0000   1.0000   1.0000   1.0000   1.0000   1.0000   1.0000   1.0000
     1.0000   1.0000   1.0000   1.0000   1.0000   1.0000   1.0000   1.0000
     1.0000   1.0000   1.0000   1.0000   1.0000   1.0000   1.0000   1.0000
     1.0000   1.0000   1.0000   1.0000   1.0000   1.0000   1.0000   1.0000
     1.0000   1.0000   1.0000   1.0000   1.0000   1.0000   1.0000   1.0000
     1.0000   1.0000   1.0000   1.0000   1.0000   1.0000   1.0000   1.0000
     1.0000   1.0000   1.0000   1.0000   1.0000   1.0000   1.0000   1.0000
     1.0000   1.0000   1.0000   1.0000   1.0000   1.0000   1.0000   1.0000
     1.0000   1.0000   1.0000   1.0000   1.0000   1.0000   1.0000   1.0000
     1.0000   1.0000   1.0000   1.0000   1.0000   1.0000   1.0000   1.0000
     1.0000   1.0000   1.0000   1.0000   1.0000   1.0000   1.0000   1.0000
     1.0000   1.0000   1.0000   1.0000   1.0000   1.0000   1.0000   1.0000
     1.0000   1.0000   1.0000   1.0000   1.0000   1.0000   1.0000   1.0000
     1.0000   1.0000   1.0000   1.0000   1.0000   1.0000   1.0000   1.0000
     1.0000   1.0000   1.0000   1.0000   1.0000   1.0000   0.9999   0.9999
     0.9987   0.9987   0.9980   0.9980   0.9935   0.9935   0.9627   0.9627
     0.8631   0.8631   0.7446   0.7445   0.5594   0.5594   0.0012   0.0012
     0.0000   0.0000   0.0000   0.0000   0.0000   0.0000   0.0000   0.0000
     0.0000   0.0000   0.0000   0.0000   0.0000   0.0000   0.0000   0.0000
     0.0000   0.0000   0.0000   0.0000   0.0000   0.0000   0.0000   0.0000
     0.0000   0.0000   0.0000   0.0000   0.0000   0.0000   0.0000   0.0000
     0.0000   0.0000   0.0000   0.0000   0.0000   0.0000   0.0000   0.0000
     0.0000   0.0000   0.0000   0.0000   0.0000   0.0000   0.0000   0.0000
     0.0000   0.0000   0.0000   0.0000   0.0000   0.0000   0.0000   0.0000
     0.0000   0.0000   0.0000   0.0000   0.0000   0.0000   0.0000   0.0000
     0.0000   0.0000   0.0000   0.0000   0.0000   0.0000   0.0000   0.0000
     0.0000   0.0000   0.0000   0.0000   0.0000   0.0000   0.0000   0.0000
     0.0000   0.0000   0.0000   0.0000   0.0000   0.0000   0.0000   0.0000
     0.0000   0.0000   0.0000   0.0000   0.0000   0.0000   0.0000   0.0000
     0.0000   0.0000   0.0000   0.0000   0.0000   0.0000   0.0000   0.0000
     0.0000   0.0000   0.0000   0.0000   0.0000   0.0000   0.0000   0.0000
     0.0000   0.0000   0.0000   0.0000   0.0000   0.0000   0.0000   0.0000
     0.0000   0.0000   0.0000   0.0000   0.0000   0.0000   0.0000   0.0000
     0.0000   0.0000   0.0000   0.0000   0.0000   0.0000   0.0000   0.0000
     0.0000   0.0000   0.0000   0.0000   0.0000   0.0000   0.0000   0.0000
     0.0000   0.0000   0.0000   0.0000   0.0000   0.0000   0.0000   0.0000
     0.0000   0.0000   0.0000   0.0000   0.0000   0.0000   0.0000   0.0000
     0.0000   0.0000   0.0000   0.0000   0.0000   0.0000   0.0000   0.0000
     0.0000   0.0000   0.0000   0.0000   0.0000   0.0000   0.0000   0.0000
     0.0000   0.0000   0.0000   0.0000   0.0000   0.0000   0.0000   0.0000
     0.0000   0.0000   0.0000   0.0000   0.0000   0.0000   0.0000   0.0000
     0.0000   0.0000   0.0000   0.0000   0.0000   0.0000   0.0000   0.0000
     0.0000   0.0000   0.0000   0.0000   0.0000   0.0000   0.0000   0.0000
     0.0000   0.0000   0.0000   0.0000   0.0000   0.0000   0.0000   0.0000
     0.0000   0.0000   0.0000   0.0000   0.0000   0.0000   0.0000   0.0000
     0.0000   0.0000   0.0000   0.0000   0.0000   0.0000   0.0000   0.0000
     0.0000   0.0000   0.0000   0.0000   0.0000   0.0000   0.0000   0.0000
     0.0000   0.0000   0.0000   0.0000   0.0000   0.0000   0.0000   0.0000
     0.0000   0.0000   0.0000   0.0000   0.0000   0.0000   0.0000   0.0000
     0.0000   0.0000   0.0000   0.0000   0.0000   0.0000   0.0000   0.0000
     0.0000   0.0000   0.0000   0.0000   0.0000   0.0000   0.0000   0.0000
     0.0000   0.0000

          k = 0.0000 0.0000 0.0243 (214784 PWs)   bands (ev):

   -98.4000 -98.4000 -98.3988 -98.3988 -98.3945 -98.3945 -98.3945 -98.3945
   -98.3944 -98.3944 -98.3944 -98.3944 -98.3940 -98.3940 -98.3930 -98.3930
   -98.3354 -98.3354 -98.3349 -98.3349 -98.3348 -98.3348 -98.3347 -98.3347
   -98.3343 -98.3343 -98.3342 -98.3342 -98.3335 -98.3335 -98.3329 -98.3329
   -98.3327 -98.3327 -98.3322 -98.3322 -98.3314 -98.3314 -98.3313 -98.3313
   -98.3309 -98.3309 -98.3308 -98.3308 -98.3306 -98.3306 -98.3301 -98.3301
   -98.2497 -98.2497 -98.2497 -98.2497 -98.2495 -98.2495 -98.2494 -98.2494
   -98.2494 -98.2494 -98.2493 -98.2493 -98.2493 -98.2493 -98.2491 -98.2491
   -97.8333 -97.8333 -97.8332 -97.8332 -97.8332 -97.8332 -97.8332 -97.8332
   -97.8327 -97.8327 -97.8326 -97.8326 -97.8325 -97.8325 -97.8325 -97.8325
   -97.8304 -97.8304 -97.8304 -97.8304 -97.8303 -97.8303 -97.8303 -97.8303
   -97.8299 -97.8299 -97.8298 -97.8298 -97.8298 -97.8298 -97.8298 -97.8298
   -97.8009 -97.8009 -97.8009 -97.8009 -97.8008 -97.8008 -97.8008 -97.8008
   -97.8008 -97.8008 -97.8007 -97.8007 -97.8007 -97.8007 -97.8007 -97.8007
   -97.7988 -97.7988 -97.7988 -97.7988 -97.7988 -97.7988 -97.7988 -97.7988
   -97.7987 -97.7987 -97.7987 -97.7987 -97.7987 -97.7987 -97.7987 -97.7987
   -97.3695 -97.3695 -97.3694 -97.3694 -97.3694 -97.3694 -97.3693 -97.3693
   -97.3693 -97.3693 -97.3692 -97.3692 -97.3692 -97.3692 -97.3690 -97.3690
   -62.0880 -62.0880 -62.0844 -62.0844 -62.0843 -62.0843 -62.0840 -62.0839
   -62.0839 -62.0839 -62.0837 -62.0837 -62.0695 -62.0695 -62.0666 -62.0666
   -62.0272 -62.0272 -62.0252 -62.0252 -62.0248 -62.0248 -62.0247 -62.0247
   -62.0229 -62.0229 -62.0228 -62.0228 -62.0205 -62.0205 -62.0182 -62.0182
   -62.0171 -62.0171 -62.0151 -62.0151 -62.0117 -62.0117 -62.0116 -62.0116
   -62.0099 -62.0099 -62.0097 -62.0097 -62.0082 -62.0082 -62.0056 -62.0056
   -61.9355 -61.9355 -61.9354 -61.9354 -61.9353 -61.9353 -61.9351 -61.9351
   -61.9350 -61.9350 -61.9349 -61.9349 -61.9348 -61.9348 -61.9346 -61.9346
   -61.5205 -61.5205 -61.5204 -61.5204 -61.5203 -61.5203 -61.5202 -61.5202
   -61.5180 -61.5179 -61.5179 -61.5178 -61.5178 -61.5177 -61.5177 -61.5177
   -61.5098 -61.5098 -61.5097 -61.5097 -61.5096 -61.5096 -61.5095 -61.5095
   -61.5086 -61.5086 -61.5084 -61.5084 -61.5084 -61.5084 -61.5082 -61.5081
   -61.4858 -61.4858 -61.4857 -61.4857 -61.4857 -61.4857 -61.4856 -61.4856
   -61.4852 -61.4852 -61.4849 -61.4849 -61.4848 -61.4848 -61.4845 -61.4845
   -61.4785 -61.4785 -61.4784 -61.4784 -61.4784 -61.4784 -61.4783 -61.4783
   -61.4780 -61.4779 -61.4777 -61.4777 -61.4777 -61.4777 -61.4775 -61.4775
   -61.0560 -61.0560 -61.0559 -61.0559 -61.0558 -61.0558 -61.0558 -61.0558
   -61.0558 -61.0558 -61.0556 -61.0556 -61.0556 -61.0556 -61.0554 -61.0554
   -45.6390 -45.6389 -45.6359 -45.6358 -45.6291 -45.6291 -45.6280 -45.6279
   -45.6218 -45.6217 -45.6217 -45.6216 -45.6147 -45.6146 -45.6145 -45.6144
   -45.6054 -45.6054 -45.6013 -45.6013 -45.5771 -45.5771 -45.5767 -45.5767
   -45.5753 -45.5753 -45.5732 -45.5732 -45.5648 -45.5648 -45.5594 -45.5594
   -45.5529 -45.5529 -45.5517 -45.5516 -45.5511 -45.5511 -45.5508 -45.5508
   -45.5427 -45.5427 -45.5425 -45.5425 -45.5318 -45.5318 -45.5294 -45.5293
   -45.5250 -45.5249 -45.5228 -45.5228 -45.5171 -45.5170 -45.5161 -45.5160
   -45.5155 -45.5155 -45.5150 -45.5150 -45.5094 -45.5094 -45.5086 -45.5086
   -45.5004 -45.5003 -45.4987 -45.4987 -45.4960 -45.4960 -45.4956 -45.4956
   -45.4905 -45.4904 -45.4882 -45.4882 -45.4881 -45.4881 -45.4840 -45.4839
   -45.4800 -45.4800 -45.4769 -45.4769 -45.4740 -45.4740 -45.4699 -45.4699
   -45.4635 -45.4635 -45.4634 -45.4633 -45.4613 -45.4613 -45.4574 -45.4574
   -45.4279 -45.4278 -45.4273 -45.4271 -45.4263 -45.4261 -45.4257 -45.4256
   -45.4183 -45.4182 -45.4176 -45.4174 -45.4170 -45.4169 -45.4162 -45.4160
   -45.4151 -45.4150 -45.4144 -45.4143 -45.4139 -45.4138 -45.4112 -45.4111
   -45.4094 -45.4094 -45.4072 -45.4071 -45.4062 -45.4061 -45.4046 -45.4045
   -45.0680 -45.0679 -45.0675 -45.0675 -45.0652 -45.0651 -45.0628 -45.0628
   -45.0564 -45.0564 -45.0563 -45.0563 -45.0545 -45.0545 -45.0513 -45.0513
   -45.0394 -45.0394 -45.0376 -45.0376 -45.0367 -45.0367 -45.0343 -45.0343
   -45.0342 -45.0342 -45.0304 -45.0304 -45.0298 -45.0298 -45.0266 -45.0266
   -45.0144 -45.0144 -45.0111 -45.0111 -45.0042 -45.0042 -45.0039 -45.0039
   -45.0012 -45.0012 -44.9998 -44.9998 -44.9941 -44.9941 -44.9915 -44.9915
   -44.9897 -44.9897 -44.9883 -44.9883 -44.9851 -44.9851 -44.9805 -44.9805
   -44.9804 -44.9804 -44.9784 -44.9784 -44.9783 -44.9783 -44.9767 -44.9766
   -44.9749 -44.9749 -44.9714 -44.9714 -44.9707 -44.9707 -44.9696 -44.9696
   -44.9670 -44.9670 -44.9667 -44.9667 -44.9647 -44.9647 -44.9634 -44.9634
   -44.9607 -44.9607 -44.9597 -44.9597 -44.9592 -44.9592 -44.9578 -44.9578
   -44.9554 -44.9554 -44.9546 -44.9546 -44.9542 -44.9542 -44.9539 -44.9539
   -44.9522 -44.9522 -44.9521 -44.9521 -44.9521 -44.9521 -44.9507 -44.9507
   -44.9497 -44.9497 -44.9493 -44.9493 -44.9488 -44.9488 -44.9478 -44.9478
   -44.9244 -44.9244 -44.9243 -44.9242 -44.9242 -44.9242 -44.9224 -44.9224
   -44.9220 -44.9219 -44.9205 -44.9205 -44.9192 -44.9192 -44.9190 -44.9190
   -44.5636 -44.5635 -44.5635 -44.5634 -44.5628 -44.5628 -44.5627 -44.5626
   -44.5626 -44.5625 -44.5624 -44.5623 -44.5618 -44.5617 -44.5617 -44.5616
   -44.5322 -44.5321 -44.5321 -44.5320 -44.5319 -44.5318 -44.5317 -44.5317
   -44.5300 -44.5299 -44.5299 -44.5298 -44.5298 -44.5296 -44.5296 -44.5295
    -1.9479  -1.9479  -1.3208  -1.3208  -1.1697  -1.1697  -1.1645  -1.1645
    -0.6704  -0.6704  -0.6638  -0.6638  -0.5435  -0.5435  -0.3198  -0.3198
    -0.2196  -0.2196  -0.1485  -0.1485  -0.0657  -0.0657   0.0286   0.0286
     0.0419   0.0419   0.1203   0.1203   0.1418   0.1418   0.1552   0.1552
     0.2662   0.2662   0.2764   0.2764   0.2877   0.2877   0.3186   0.3186
     0.3339   0.3339   0.4110   0.4110   0.4135   0.4135   0.4251   0.4251
     0.4496   0.4496   0.4514   0.4514   0.4612   0.4613   0.5147   0.5147
     0.5156   0.5156   0.5868   0.5869   0.6036   0.6036   0.6318   0.6318
     0.6416   0.6416   0.6480   0.6480   0.6700   0.6700   0.6889   0.6889
     0.6997   0.6997   0.7021   0.7021   0.7578   0.7578   0.7598   0.7598
     0.7785   0.7785   0.7813   0.7813   0.7872   0.7872   0.8044   0.8044
     0.8323   0.8323   0.8395   0.8395   0.8656   0.8656   0.8740   0.8741
     0.8797   0.8797   0.9114   0.9114   0.9188   0.9188   0.9240   0.9240
     0.9443   0.9443   0.9466   0.9466   0.9475   0.9475   0.9811   0.9811
     0.9953   0.9953   1.0261   1.0261   1.0384   1.0385   1.0519   1.0519
     1.0795   1.0796   1.0818   1.0819   1.0842   1.0842   1.0876   1.0876
     1.1176   1.1176   1.1546   1.1546   1.1900   1.1900   1.2026   1.2026
     1.2119   1.2119   1.2319   1.2319   1.2522   1.2522   1.2589   1.2589
     1.2938   1.2938   1.3043   1.3043   1.3070   1.3070   1.3691   1.3691
     1.3843   1.3843   1.3868   1.3868   1.4442   1.4442   1.4582   1.4582
     1.4769   1.4769   1.5069   1.5069   1.5329   1.5329   1.5537   1.5537
     1.5595   1.5595   1.5733   1.5733   1.5747   1.5747   1.5775   1.5775
     1.5972   1.5972   1.5989   1.5989   1.6116   1.6116   1.6466   1.6466
     1.6486   1.6486   1.6584   1.6584   1.6607   1.6607   1.6685   1.6685
     1.6810   1.6810   1.6902   1.6902   1.6906   1.6906   1.7149   1.7149
     1.7188   1.7188   1.7519   1.7519   1.7585   1.7585   1.7752   1.7752
     1.7903   1.7903   1.7975   1.7975   1.8173   1.8174   1.8327   1.8327
     1.8357   1.8357   1.8637   1.8637   1.8695   1.8695   1.8964   1.8964
     1.8971   1.8971   1.9105   1.9105   1.9142   1.9142   1.9195   1.9195
     1.9458   1.9458   1.9539   1.9539   1.9550   1.9550   1.9643   1.9643
     1.9663   1.9663   1.9924   1.9924   1.9942   1.9943   2.0209   2.0209
     2.0403   2.0403   2.0530   2.0530   2.0723   2.0723   2.0818   2.0818
     2.0844   2.0844   2.1186   2.1186   2.1316   2.1317   2.1487   2.1487
     2.1588   2.1588   2.1793   2.1793   2.1931   2.1931   2.1932   2.1932
     2.2152   2.2152   2.2194   2.2194   2.2257   2.2257   2.2443   2.2443
     2.2586   2.2586   2.2611   2.2611   2.2681   2.2681   2.2925   2.2925
     2.2953   2.2953   2.3353   2.3353   2.3413   2.3413   2.3563   2.3563
     2.3888   2.3888   2.3991   2.3991   2.4835   2.4835   2.4913   2.4914
     2.4980   2.4980   2.5087   2.5087   2.5291   2.5291   2.5525   2.5525
     2.5529   2.5529   2.5626   2.5626   2.5764   2.5764   2.5991   2.5991
     2.6483   2.6483   2.6614   2.6614   2.6689   2.6689   2.6719   2.6719
     2.6830   2.6830   2.7027   2.7027   2.7047   2.7047   2.7121   2.7121
     2.7175   2.7175   2.7343   2.7343   2.7435   2.7435   2.7682   2.7682
     2.7742   2.7742   2.8029   2.8029   2.8068   2.8069   2.8520   2.8520
     2.8555   2.8555   2.8654   2.8654   2.8981   2.8981   2.9605   2.9605
     3.0166   3.0166   3.0312   3.0312   3.0586   3.0586   3.0666   3.0666
     3.0738   3.0738   3.0883   3.0884   3.1009   3.1009   3.1184   3.1184
     3.1886   3.1886   3.1903   3.1903   3.1926   3.1926   3.1937   3.1937
     3.2541   3.2541   3.2589   3.2589   3.2639   3.2640   3.2718   3.2719
     3.2895   3.2895   3.3066   3.3066   3.3470   3.3470   3.3930   3.3930
     3.3960   3.3961   3.4040   3.4040   3.4251   3.4252   3.4436   3.4436
     3.4526   3.4526   3.4702   3.4703   3.4898   3.4898   3.5060   3.5060
     3.5213   3.5213   3.5668   3.5668   3.5693   3.5694   3.5961   3.5961
     3.6138   3.6138   3.6246   3.6246   3.6319   3.6319   3.6465   3.6465
     3.6563   3.6563   3.6661   3.6661   3.6819   3.6819   3.6908   3.6908
     3.7013   3.7013   3.7067   3.7067   3.7097   3.7097   3.7357   3.7357
     3.7399   3.7399   3.7609   3.7609   3.7640   3.7640   3.7648   3.7648
     3.7909   3.7910   3.8040   3.8040   3.8258   3.8258   3.8374   3.8374
     3.8482   3.8483   3.8676   3.8676   3.8682   3.8682   3.8798   3.8798
     3.8958   3.8958   3.9052   3.9052   3.9245   3.9245   3.9316   3.9316
     3.9319   3.9319   3.9587   3.9587   3.9651   3.9651   3.9778   3.9778
     3.9801   3.9802   4.0006   4.0007   4.0234   4.0234   4.0264   4.0264
     4.0312   4.0312   4.0595   4.0595   4.0726   4.0726   4.0807   4.0807
     4.0817   4.0817   4.0889   4.0889   4.1196   4.1196   4.1251   4.1251
     4.1351   4.1351   4.1628   4.1628   4.1649   4.1649   4.1694   4.1695
     4.1946   4.1947   4.1962   4.1962   4.2205   4.2205   4.2378   4.2378
     4.2543   4.2543   4.2557   4.2557   4.2590   4.2591   4.2770   4.2770
     4.2820   4.2820   4.2857   4.2857   4.3009   4.3009   4.3031   4.3031
     4.3099   4.3099   4.3146   4.3146   4.3246   4.3246   4.3319   4.3319
     4.3405   4.3405   4.3449   4.3449   4.3673   4.3673   4.3854   4.3854
     4.3855   4.3855   4.4032   4.4032   4.4061   4.4061   4.4065   4.4065
     4.4264   4.4264   4.4622   4.4622   4.4715   4.4715   4.4766   4.4766
     4.4933   4.4933   4.5080   4.5080   4.5086   4.5086   4.5338   4.5338
     4.5347   4.5347   4.5368   4.5368   4.5385   4.5385   4.5487   4.5487
     4.5625   4.5625   4.5789   4.5789   4.5841   4.5841   4.5899   4.5899
     4.6084   4.6084   4.6137   4.6137   4.6268   4.6268   4.6373   4.6373
     4.6498   4.6498   4.6506   4.6506   4.6749   4.6749   4.6937   4.6937
     4.7039   4.7039   4.7129   4.7129   4.7304   4.7304   4.7370   4.7370
     4.7513   4.7513   4.7823   4.7823   4.7864   4.7865   4.8015   4.8015
     4.8185   4.8185   4.8209   4.8209   4.8614   4.8614   4.8663   4.8663
     4.8706   4.8706   4.8730   4.8730   4.8890   4.8890   4.8909   4.8910
     4.9239   4.9239   4.9288   4.9288   4.9394   4.9394   4.9432   4.9432
     4.9743   4.9743   4.9957   4.9957   4.9961   4.9961   5.0206   5.0206
     5.0243   5.0243   5.0306   5.0306   5.0387   5.0387   5.0398   5.0398
     5.0657   5.0657   5.0769   5.0769   5.0944   5.0944   5.1049   5.1049
     5.1226   5.1226   5.1246   5.1246   5.1304   5.1304   5.1498   5.1498
     5.1517   5.1517   5.1545   5.1545   5.1548   5.1548   5.1677   5.1677
     5.1790   5.1790   5.1862   5.1862   5.1867   5.1868   5.1971   5.1971
     5.2079   5.2079   5.2192   5.2192   5.2294   5.2295   5.2298   5.2298
     5.2314   5.2314   5.2449   5.2450   5.2671   5.2671   5.2722   5.2722
     5.2869   5.2869   5.2944   5.2944   5.3016   5.3016   5.3050   5.3051
     5.3259   5.3260   5.3333   5.3333   5.3367   5.3367   5.3422   5.3422
     5.3735   5.3735   5.4066   5.4066   5.4306   5.4306   5.4397   5.4397
     5.4707   5.4707   5.4724   5.4724   5.5037   5.5037   5.5075   5.5075
     5.5675   5.5675   5.5760   5.5760   5.6197   5.6197   5.6203   5.6203
     5.7274   5.7274   5.7715   5.7715   5.8464   5.8464   5.9395   5.9395
     5.9426   5.9426   6.1613   6.1613   6.1932   6.1932   6.3120   6.3120
     6.5079   6.5079   6.5231   6.5231   6.5242   6.5242   6.5940   6.5940
     6.7252   6.7252   6.8154   6.8154   6.8889   6.8889   7.1262   7.1262
     7.1761   7.1762   7.2340   7.2340   7.2915   7.2915   7.3176   7.3176
     7.5271   7.5271   7.5888   7.5888   7.6844   7.6844   7.8111   7.8111
     7.8134   7.8134   7.9102   7.9102   8.0559   8.0559   8.0794   8.0794
     8.0965   8.0965   8.2769   8.2769   8.2859   8.2859   8.3599   8.3599
     8.3754   8.3754   8.5383   8.5383   8.5797   8.5797   8.6028   8.6028
     8.7137   8.7137   9.0236   9.0236   9.0467   9.0467   9.0474   9.0474
     9.0611   9.0611   9.1349   9.1349   9.1765   9.1765   9.1833   9.1833
     9.2900   9.2900   9.3264   9.3264   9.4211   9.4211   9.4987   9.4987
     9.5029   9.5029   9.5093   9.5093   9.5196   9.5196   9.5643   9.5643
     9.5954   9.5954   9.6114   9.6114   9.6948   9.6948   9.7557   9.7557
     9.9058   9.9058   9.9145   9.9145   9.9146   9.9146  10.4643  10.4643
    10.4861  10.4861  10.5021  10.5021  10.5347  10.5347  10.5635  10.5635
    10.5757  10.5757  10.5838  10.5838  10.6312  10.6312  10.6527  10.6527
    10.6742  10.6742  10.7239  10.7239  10.9712  10.9712  10.9840  10.9840
    11.0624  11.0624  11.2953  11.2953  11.3506  11.3506  11.4301  11.4301
    11.4816  11.4816  11.4997  11.4997  11.5567  11.5567  11.5720  11.5720
    11.6588  11.6588  11.6862  11.6862  11.7626  11.7626  11.8050  11.8050
    11.8650  11.8650  11.8783  11.8783  11.9520  11.9520  12.0101  12.0102
    12.0187  12.0187  12.0256  12.0256  12.0842  12.0842  12.1834  12.1834
    12.1856  12.1856  12.3521  12.3521  12.4003  12.4003  12.4013  12.4013
    12.4928  12.4928  12.5973  12.5973  12.6328  12.6328  12.6501  12.6501
    12.6655  12.6655  12.8049  12.8049  12.8704  12.8704  12.8842  12.8842
    12.9173  12.9173  12.9982  12.9982  13.0243  13.0243  13.0424  13.0424
    13.1529  13.1529  13.1738  13.1738  13.2395  13.2395  13.2656  13.2656
    13.2766  13.2766  13.3180  13.3180  13.6207  13.6207  13.6264  13.6264
    13.6630  13.6630  13.6945  13.6945  13.7398  13.7398  13.7963  13.7963
    13.8379  13.8380  13.8521  13.8521  13.9580  13.9580  13.9844  13.9844
    14.0857  14.0857  14.1003  14.1003  14.2156  14.2156  14.3867  14.3867
    14.4716  14.4715  14.4871  14.4871  14.4922  14.4922  14.5390  14.5390
    14.5596  14.5597  14.6417  14.6417  14.6734  14.6733  14.7457  14.7458
    14.7457  14.7458  14.7670  14.7670  14.7721  14.7722  14.7823  14.7823
    14.7872  14.7872  14.8254  14.8255  14.9070  14.9070  14.9385  14.9385
    15.0041  15.0042  15.0106  15.0107  15.0212  15.0214  15.0620  15.0618
    15.0645  15.0646  15.1273  15.1272  15.1621  15.1618  15.1837  15.1836
    15.2143  15.2142  15.2651  15.2652  15.2880  15.2880  15.3467  15.3469
    15.4504  15.4506

     occupation numbers 
     1.0000   1.0000   1.0000   1.0000   1.0000   1.0000   1.0000   1.0000
     1.0000   1.0000   1.0000   1.0000   1.0000   1.0000   1.0000   1.0000
     1.0000   1.0000   1.0000   1.0000   1.0000   1.0000   1.0000   1.0000
     1.0000   1.0000   1.0000   1.0000   1.0000   1.0000   1.0000   1.0000
     1.0000   1.0000   1.0000   1.0000   1.0000   1.0000   1.0000   1.0000
     1.0000   1.0000   1.0000   1.0000   1.0000   1.0000   1.0000   1.0000
     1.0000   1.0000   1.0000   1.0000   1.0000   1.0000   1.0000   1.0000
     1.0000   1.0000   1.0000   1.0000   1.0000   1.0000   1.0000   1.0000
     1.0000   1.0000   1.0000   1.0000   1.0000   1.0000   1.0000   1.0000
     1.0000   1.0000   1.0000   1.0000   1.0000   1.0000   1.0000   1.0000
     1.0000   1.0000   1.0000   1.0000   1.0000   1.0000   1.0000   1.0000
     1.0000   1.0000   1.0000   1.0000   1.0000   1.0000   1.0000   1.0000
     1.0000   1.0000   1.0000   1.0000   1.0000   1.0000   1.0000   1.0000
     1.0000   1.0000   1.0000   1.0000   1.0000   1.0000   1.0000   1.0000
     1.0000   1.0000   1.0000   1.0000   1.0000   1.0000   1.0000   1.0000
     1.0000   1.0000   1.0000   1.0000   1.0000   1.0000   1.0000   1.0000
     1.0000   1.0000   1.0000   1.0000   1.0000   1.0000   1.0000   1.0000
     1.0000   1.0000   1.0000   1.0000   1.0000   1.0000   1.0000   1.0000
     1.0000   1.0000   1.0000   1.0000   1.0000   1.0000   1.0000   1.0000
     1.0000   1.0000   1.0000   1.0000   1.0000   1.0000   1.0000   1.0000
     1.0000   1.0000   1.0000   1.0000   1.0000   1.0000   1.0000   1.0000
     1.0000   1.0000   1.0000   1.0000   1.0000   1.0000   1.0000   1.0000
     1.0000   1.0000   1.0000   1.0000   1.0000   1.0000   1.0000   1.0000
     1.0000   1.0000   1.0000   1.0000   1.0000   1.0000   1.0000   1.0000
     1.0000   1.0000   1.0000   1.0000   1.0000   1.0000   1.0000   1.0000
     1.0000   1.0000   1.0000   1.0000   1.0000   1.0000   1.0000   1.0000
     1.0000   1.0000   1.0000   1.0000   1.0000   1.0000   1.0000   1.0000
     1.0000   1.0000   1.0000   1.0000   1.0000   1.0000   1.0000   1.0000
     1.0000   1.0000   1.0000   1.0000   1.0000   1.0000   1.0000   1.0000
     1.0000   1.0000   1.0000   1.0000   1.0000   1.0000   1.0000   1.0000
     1.0000   1.0000   1.0000   1.0000   1.0000   1.0000   1.0000   1.0000
     1.0000   1.0000   1.0000   1.0000   1.0000   1.0000   1.0000   1.0000
     1.0000   1.0000   1.0000   1.0000   1.0000   1.0000   1.0000   1.0000
     1.0000   1.0000   1.0000   1.0000   1.0000   1.0000   1.0000   1.0000
     1.0000   1.0000   1.0000   1.0000   1.0000   1.0000   1.0000   1.0000
     1.0000   1.0000   1.0000   1.0000   1.0000   1.0000   1.0000   1.0000
     1.0000   1.0000   1.0000   1.0000   1.0000   1.0000   1.0000   1.0000
     1.0000   1.0000   1.0000   1.0000   1.0000   1.0000   1.0000   1.0000
     1.0000   1.0000   1.0000   1.0000   1.0000   1.0000   1.0000   1.0000
     1.0000   1.0000   1.0000   1.0000   1.0000   1.0000   1.0000   1.0000
     1.0000   1.0000   1.0000   1.0000   1.0000   1.0000   1.0000   1.0000
     1.0000   1.0000   1.0000   1.0000   1.0000   1.0000   1.0000   1.0000
     1.0000   1.0000   1.0000   1.0000   1.0000   1.0000   1.0000   1.0000
     1.0000   1.0000   1.0000   1.0000   1.0000   1.0000   1.0000   1.0000
     1.0000   1.0000   1.0000   1.0000   1.0000   1.0000   1.0000   1.0000
     1.0000   1.0000   1.0000   1.0000   1.0000   1.0000   1.0000   1.0000
     1.0000   1.0000   1.0000   1.0000   1.0000   1.0000   1.0000   1.0000
     1.0000   1.0000   1.0000   1.0000   1.0000   1.0000   1.0000   1.0000
     1.0000   1.0000   1.0000   1.0000   1.0000   1.0000   1.0000   1.0000
     1.0000   1.0000   1.0000   1.0000   1.0000   1.0000   1.0000   1.0000
     1.0000   1.0000   1.0000   1.0000   1.0000   1.0000   1.0000   1.0000
     1.0000   1.0000   1.0000   1.0000   1.0000   1.0000   1.0000   1.0000
     1.0000   1.0000   1.0000   1.0000   1.0000   1.0000   1.0000   1.0000
     1.0000   1.0000   1.0000   1.0000   1.0000   1.0000   1.0000   1.0000
     1.0000   1.0000   1.0000   1.0000   1.0000   1.0000   1.0000   1.0000
     1.0000   1.0000   1.0000   1.0000   1.0000   1.0000   1.0000   1.0000
     1.0000   1.0000   1.0000   1.0000   1.0000   1.0000   1.0000   1.0000
     1.0000   1.0000   1.0000   1.0000   1.0000   1.0000   1.0000   1.0000
     1.0000   1.0000   1.0000   1.0000   1.0000   1.0000   1.0000   1.0000
     1.0000   1.0000   1.0000   1.0000   1.0000   1.0000   1.0000   1.0000
     1.0000   1.0000   1.0000   1.0000   1.0000   1.0000   1.0000   1.0000
     1.0000   1.0000   1.0000   1.0000   1.0000   1.0000   1.0000   1.0000
     1.0000   1.0000   1.0000   1.0000   1.0000   1.0000   1.0000   1.0000
     1.0000   1.0000   1.0000   1.0000   1.0000   1.0000   1.0000   1.0000
     1.0000   1.0000   1.0000   1.0000   1.0000   1.0000   1.0000   1.0000
     1.0000   1.0000   1.0000   1.0000   1.0000   1.0000   1.0000   1.0000
     1.0000   1.0000   1.0000   1.0000   1.0000   1.0000   1.0000   1.0000
     1.0000   1.0000   1.0000   1.0000   1.0000   1.0000   1.0000   1.0000
     1.0000   1.0000   1.0000   1.0000   1.0000   1.0000   1.0000   1.0000
     1.0000   1.0000   1.0000   1.0000   1.0000   1.0000   1.0000   1.0000
     1.0000   1.0000   1.0000   1.0000   1.0000   1.0000   1.0000   1.0000
     1.0000   1.0000   1.0000   1.0000   1.0000   1.0000   1.0000   1.0000
     1.0000   1.0000   1.0000   1.0000   1.0000   1.0000   1.0000   1.0000
     1.0000   1.0000   1.0000   1.0000   1.0000   1.0000   1.0000   1.0000
     1.0000   1.0000   1.0000   1.0000   1.0000   1.0000   1.0000   1.0000
     1.0000   1.0000   1.0000   1.0000   1.0000   1.0000   1.0000   1.0000
     1.0000   1.0000   1.0000   1.0000   1.0000   1.0000   1.0000   1.0000
     1.0000   1.0000   1.0000   1.0000   1.0000   1.0000   1.0000   1.0000
     1.0000   1.0000   1.0000   1.0000   1.0000   1.0000   1.0000   1.0000
     1.0000   1.0000   1.0000   1.0000   1.0000   1.0000   1.0000   1.0000
     1.0000   1.0000   1.0000   1.0000   1.0000   1.0000   1.0000   1.0000
     1.0000   1.0000   1.0000   1.0000   1.0000   1.0000   1.0000   1.0000
     1.0000   1.0000   1.0000   1.0000   1.0000   1.0000   1.0000   1.0000
     1.0000   1.0000   1.0000   1.0000   1.0000   1.0000   1.0000   1.0000
     1.0000   1.0000   1.0000   1.0000   1.0000   1.0000   1.0000   1.0000
     1.0000   1.0000   1.0000   1.0000   1.0000   1.0000   1.0000   1.0000
     1.0000   1.0000   1.0000   1.0000   1.0000   1.0000   1.0000   1.0000
     1.0000   1.0000   1.0000   1.0000   1.0000   1.0000   1.0000   1.0000
     1.0000   1.0000   1.0000   1.0000   1.0000   1.0000   1.0000   1.0000
     1.0000   1.0000   1.0000   1.0000   1.0000   1.0000   1.0000   1.0000
     1.0000   1.0000   1.0000   1.0000   1.0000   1.0000   1.0000   1.0000
     1.0000   1.0000   1.0000   1.0000   1.0000   1.0000   1.0000   1.0000
     1.0000   1.0000   1.0000   1.0000   1.0000   1.0000   1.0000   1.0000
     1.0000   1.0000   1.0000   1.0000   1.0000   1.0000   1.0000   1.0000
     1.0000   1.0000   1.0000   1.0000   1.0000   1.0000   1.0000   1.0000
     1.0000   1.0000   1.0000   1.0000   1.0000   1.0000   1.0000   1.0000
     1.0000   1.0000   1.0000   1.0000   1.0000   1.0000   1.0000   1.0000
     1.0000   1.0000   1.0000   1.0000   1.0000   1.0000   1.0000   1.0000
     1.0000   1.0000   1.0000   1.0000   1.0000   1.0000   1.0000   1.0000
     1.0000   1.0000   1.0000   1.0000   1.0000   1.0000   1.0000   1.0000
     1.0000   1.0000   1.0000   1.0000   1.0000   1.0000   1.0000   1.0000
     1.0000   1.0000   1.0000   1.0000   1.0000   1.0000   1.0000   1.0000
     1.0000   1.0000   1.0000   1.0000   1.0000   1.0000   1.0000   1.0000
     1.0000   1.0000   1.0000   1.0000   1.0000   1.0000   1.0000   1.0000
     1.0000   1.0000   1.0000   1.0000   1.0000   1.0000   1.0000   1.0000
     1.0000   1.0000   1.0000   1.0000   1.0000   1.0000   1.0000   1.0000
     1.0000   1.0000   1.0000   1.0000   1.0000   1.0000   1.0000   1.0000
     1.0000   1.0000   1.0000   1.0000   1.0000   1.0000   1.0000   1.0000
     1.0000   1.0000   1.0000   1.0000   1.0000   1.0000   1.0000   1.0000
     1.0000   1.0000   1.0000   1.0000   1.0000   1.0000   1.0000   1.0000
     1.0000   1.0000   1.0000   1.0000   1.0000   1.0000   1.0000   1.0000
     1.0000   1.0000   1.0000   1.0000   1.0000   1.0000   1.0000   1.0000
     1.0000   1.0000   1.0000   1.0000   1.0000   1.0000   1.0000   1.0000
     1.0000   1.0000   1.0000   1.0000   1.0000   1.0000   1.0000   1.0000
     1.0000   1.0000   1.0000   1.0000   1.0000   1.0000   1.0000   1.0000
     1.0000   1.0000   1.0000   1.0000   1.0000   1.0000   1.0000   1.0000
     1.0000   1.0000   1.0000   1.0000   1.0000   1.0000   1.0000   1.0000
     1.0000   1.0000   1.0000   1.0000   1.0000   1.0000   1.0000   1.0000
     1.0000   1.0000   1.0000   1.0000   1.0000   1.0000   1.0000   1.0000
     1.0000   1.0000   1.0000   1.0000   1.0000   1.0000   1.0000   1.0000
     1.0000   1.0000   1.0000   1.0000   1.0000   1.0000   1.0000   1.0000
     1.0000   1.0000   1.0000   1.0000   1.0000   1.0000   1.0000   1.0000
     1.0000   1.0000   1.0000   1.0000   1.0000   1.0000   1.0000   1.0000
     1.0000   1.0000   1.0000   1.0000   1.0000   1.0000   1.0000   1.0000
     1.0000   1.0000   1.0000   1.0000   1.0000   1.0000   1.0000   1.0000
     1.0000   1.0000   1.0000   1.0000   1.0000   1.0000   1.0000   1.0000
     1.0000   1.0000   1.0000   1.0000   1.0000   1.0000   1.0000   1.0000
     1.0000   1.0000   1.0000   1.0000   1.0000   1.0000   1.0000   1.0000
     1.0000   1.0000   1.0000   1.0000   1.0000   1.0000   1.0000   1.0000
     1.0000   1.0000   1.0000   1.0000   1.0000   1.0000   1.0000   1.0000
     1.0000   1.0000   1.0000   1.0000   1.0000   1.0000   1.0000   1.0000
     1.0000   1.0000   1.0000   1.0000   1.0000   1.0000   1.0000   1.0000
     1.0000   1.0000   1.0000   1.0000   1.0000   1.0000   1.0000   1.0000
[...]
     atom   67 type  1   force =  -212.51363644   31.94444698   -0.00004353
     atom   68 type  1   force =  -212.51362721  -31.94438134    0.00007419
     atom   69 type  1   force =  -115.65710571 -115.65706861    0.00004428
     atom   70 type  1   force =   -96.61935518 -198.62190871    0.00002060
     atom   71 type  1   force =  -198.62187263  -96.61923268   -0.00012594
     atom   72 type  1   force =  -160.06163689 -160.06169297    0.00003013
     The core correction contribution to forces
     atom    1 type  1   force =     0.00912907    0.00914051   -0.00001035
     atom    2 type  1   force =     0.01571412   -0.00193683   -0.00000630
     atom    3 type  1   force =    -0.00191864    0.01572443    0.00000304
     atom    4 type  1   force =    -0.00268915   -0.00269483    0.00001065
     atom    5 type  1   force =     0.01548844    0.00015548   -0.00000366
     atom    6 type  1   force =     0.01548079   -0.00014518    0.00000578
     atom    7 type  1   force =    -0.00140720    0.00003636   -0.00000385
     atom    8 type  1   force =    -0.00141102   -0.00004613   -0.00001225
     atom    9 type  1   force =     0.01570785    0.00191695   -0.00000180
     atom   10 type  1   force =     0.00910736   -0.00911649   -0.00000731
     atom   11 type  1   force =    -0.00269007    0.00269797    0.00000097
     atom   12 type  1   force =    -0.00192805   -0.01571693   -0.00000430
     atom   13 type  1   force =     0.00014935    0.01549040    0.00000417
     atom   14 type  1   force =     0.00005902   -0.00140451   -0.00000414
     atom   15 type  1   force =    -0.00014490    0.01549462   -0.00000831
     atom   16 type  1   force =    -0.00004323   -0.00140782    0.00000455
     atom   17 type  1   force =    -0.00044973   -0.00044296    0.00000294
     atom   18 type  1   force =    -0.00045582    0.00045621    0.00000316
     atom   19 type  1   force =     0.00045066   -0.00044819   -0.00000722
     atom   20 type  1   force =     0.00043929    0.00044511    0.00000350
     atom   21 type  1   force =     0.00004836    0.00142054    0.00000735
     atom   22 type  1   force =     0.00012754   -0.01549045    0.00000528
     atom   23 type  1   force =    -0.00005555    0.00140639    0.00000129
     atom   24 type  1   force =    -0.00015824   -0.01548473   -0.00000711
     atom   25 type  1   force =     0.00192367    0.01571321   -0.00000242
     atom   26 type  1   force =     0.00269383   -0.00267919   -0.00000160
     atom   27 type  1   force =    -0.00910571    0.00911228   -0.00000285
     atom   28 type  1   force =    -0.01571635   -0.00191467    0.00000225
     atom   29 type  1   force =     0.00140597    0.00005317    0.00001467
     atom   30 type  1   force =     0.00142159   -0.00004867   -0.00000363
     atom   31 type  1   force =    -0.01548995    0.00015231   -0.00000571
     atom   32 type  1   force =    -0.01549419   -0.00016301    0.00000970
     atom   33 type  1   force =     0.00268753    0.00269151    0.00000677
     atom   34 type  1   force =     0.00192240   -0.01571956    0.00000968
     atom   35 type  1   force =    -0.01571852    0.00193070   -0.00000365
     atom   36 type  1   force =    -0.00912803   -0.00914191    0.00000084
     atom   37 type  1   force =     0.00912471    0.00913013   -0.00000178
     atom   38 type  1   force =     0.01571175   -0.00192306   -0.00000025
     atom   39 type  1   force =    -0.00192765    0.01572035    0.00000170
     atom   40 type  1   force =    -0.00268695   -0.00269436    0.00000266
     atom   41 type  1   force =     0.01548563    0.00015153    0.00000703
     atom   42 type  1   force =     0.01547678   -0.00015310    0.00000027
     atom   43 type  1   force =    -0.00141396    0.00005497    0.00001390
     atom   44 type  1   force =    -0.00142320   -0.00006085   -0.00000747
     atom   45 type  1   force =     0.01571267    0.00191695    0.00000049
     atom   46 type  1   force =     0.00910823   -0.00910728    0.00000633
     atom   47 type  1   force =    -0.00268504    0.00268465   -0.00000647
     atom   48 type  1   force =    -0.00191657   -0.01571467    0.00000009
     atom   49 type  1   force =     0.00014855    0.01548761    0.00000102
     atom   50 type  1   force =     0.00006128   -0.00140123    0.00000265
     atom   51 type  1   force =    -0.00014650    0.01549697   -0.00000102
     atom   52 type  1   force =    -0.00005855   -0.00140415   -0.00000567
     atom   53 type  1   force =    -0.00044346   -0.00045222    0.00001094
     atom   54 type  1   force =    -0.00043846    0.00045644   -0.00000016
     atom   55 type  1   force =     0.00045431   -0.00045110    0.00000461
     atom   56 type  1   force =     0.00043282    0.00045197   -0.00000262
     atom   57 type  1   force =     0.00005723    0.00141570    0.00000518
     atom   58 type  1   force =     0.00015038   -0.01550034    0.00000353
     atom   59 type  1   force =    -0.00005884    0.00141253   -0.00001028
     atom   60 type  1   force =    -0.00014595   -0.01549399    0.00000061
     atom   61 type  1   force =     0.00191113    0.01571575    0.00000110
     atom   62 type  1   force =     0.00269102   -0.00268352   -0.00000287
     atom   63 type  1   force =    -0.00911687    0.00912283    0.00000241
     atom   64 type  1   force =    -0.01570391   -0.00191283   -0.00000206
     atom   65 type  1   force =     0.00141827    0.00004909   -0.00001002
     atom   66 type  1   force =     0.00141783   -0.00004450   -0.00000040
     atom   67 type  1   force =    -0.01547748    0.00014887    0.00000157
     atom   68 type  1   force =    -0.01548427   -0.00015208    0.00000502
     atom   69 type  1   force =     0.00268889    0.00269672    0.00000202
     atom   70 type  1   force =     0.00192927   -0.01572440    0.00000141
     atom   71 type  1   force =    -0.01571614    0.00193756   -0.00000838
     atom   72 type  1   force =    -0.00913130   -0.00913647   -0.00000132
     The Hubbard contrib.    to forces
     atom    1 type  1   force =     0.00000000    0.00000000    0.00000000
     atom    2 type  1   force =     0.00000000    0.00000000    0.00000000
     atom    3 type  1   force =     0.00000000    0.00000000    0.00000000
     atom    4 type  1   force =     0.00000000    0.00000000    0.00000000
     atom    5 type  1   force =     0.00000000    0.00000000    0.00000000
     atom    6 type  1   force =     0.00000000    0.00000000    0.00000000
     atom    7 type  1   force =     0.00000000    0.00000000    0.00000000
     atom    8 type  1   force =     0.00000000    0.00000000    0.00000000
     atom    9 type  1   force =     0.00000000    0.00000000    0.00000000
     atom   10 type  1   force =     0.00000000    0.00000000    0.00000000
     atom   11 type  1   force =     0.00000000    0.00000000    0.00000000
     atom   12 type  1   force =     0.00000000    0.00000000    0.00000000
     atom   13 type  1   force =     0.00000000    0.00000000    0.00000000
     atom   14 type  1   force =     0.00000000    0.00000000    0.00000000
     atom   15 type  1   force =     0.00000000    0.00000000    0.00000000
     atom   16 type  1   force =     0.00000000    0.00000000    0.00000000
     atom   17 type  1   force =     0.00000000    0.00000000    0.00000000
     atom   18 type  1   force =     0.00000000    0.00000000    0.00000000
     atom   19 type  1   force =     0.00000000    0.00000000    0.00000000
     atom   20 type  1   force =     0.00000000    0.00000000    0.00000000
     atom   21 type  1   force =     0.00000000    0.00000000    0.00000000
     atom   22 type  1   force =     0.00000000    0.00000000    0.00000000
     atom   23 type  1   force =     0.00000000    0.00000000    0.00000000
     atom   24 type  1   force =     0.00000000    0.00000000    0.00000000
     atom   25 type  1   force =     0.00000000    0.00000000    0.00000000
     atom   26 type  1   force =     0.00000000    0.00000000    0.00000000
     atom   27 type  1   force =     0.00000000    0.00000000    0.00000000
     atom   28 type  1   force =     0.00000000    0.00000000    0.00000000
     atom   29 type  1   force =     0.00000000    0.00000000    0.00000000
     atom   30 type  1   force =     0.00000000    0.00000000    0.00000000
     atom   31 type  1   force =     0.00000000    0.00000000    0.00000000
     atom   32 type  1   force =     0.00000000    0.00000000    0.00000000
     atom   33 type  1   force =     0.00000000    0.00000000    0.00000000
     atom   34 type  1   force =     0.00000000    0.00000000    0.00000000
     atom   35 type  1   force =     0.00000000    0.00000000    0.00000000
     atom   36 type  1   force =     0.00000000    0.00000000    0.00000000
     atom   37 type  1   force =     0.00000000    0.00000000    0.00000000
     atom   38 type  1   force =     0.00000000    0.00000000    0.00000000
     atom   39 type  1   force =     0.00000000    0.00000000    0.00000000
     atom   40 type  1   force =     0.00000000    0.00000000    0.00000000
     atom   41 type  1   force =     0.00000000    0.00000000    0.00000000
     atom   42 type  1   force =     0.00000000    0.00000000    0.00000000
     atom   43 type  1   force =     0.00000000    0.00000000    0.00000000
     atom   44 type  1   force =     0.00000000    0.00000000    0.00000000
     atom   45 type  1   force =     0.00000000    0.00000000    0.00000000
     atom   46 type  1   force =     0.00000000    0.00000000    0.00000000
     atom   47 type  1   force =     0.00000000    0.00000000    0.00000000
     atom   48 type  1   force =     0.00000000    0.00000000    0.00000000
     atom   49 type  1   force =     0.00000000    0.00000000    0.00000000
     atom   50 type  1   force =     0.00000000    0.00000000    0.00000000
     atom   51 type  1   force =     0.00000000    0.00000000    0.00000000
     atom   52 type  1   force =     0.00000000    0.00000000    0.00000000
     atom   53 type  1   force =     0.00000000    0.00000000    0.00000000
     atom   54 type  1   force =     0.00000000    0.00000000    0.00000000
     atom   55 type  1   force =     0.00000000    0.00000000    0.00000000
     atom   56 type  1   force =     0.00000000    0.00000000    0.00000000
     atom   57 type  1   force =     0.00000000    0.00000000    0.00000000
     atom   58 type  1   force =     0.00000000    0.00000000    0.00000000
     atom   59 type  1   force =     0.00000000    0.00000000    0.00000000
     atom   60 type  1   force =     0.00000000    0.00000000    0.00000000
     atom   61 type  1   force =     0.00000000    0.00000000    0.00000000
     atom   62 type  1   force =     0.00000000    0.00000000    0.00000000
     atom   63 type  1   force =     0.00000000    0.00000000    0.00000000
     atom   64 type  1   force =     0.00000000    0.00000000    0.00000000
     atom   65 type  1   force =     0.00000000    0.00000000    0.00000000
     atom   66 type  1   force =     0.00000000    0.00000000    0.00000000
     atom   67 type  1   force =     0.00000000    0.00000000    0.00000000
     atom   68 type  1   force =     0.00000000    0.00000000    0.00000000
     atom   69 type  1   force =     0.00000000    0.00000000    0.00000000
     atom   70 type  1   force =     0.00000000    0.00000000    0.00000000
     atom   71 type  1   force =     0.00000000    0.00000000    0.00000000
     atom   72 type  1   force =     0.00000000    0.00000000    0.00000000
     The SCF correction term to forces
     atom    1 type  1   force =     0.03005161    0.03004985    0.00005609
     atom    2 type  1   force =     0.08740232    0.01553171    0.00010403
     atom    3 type  1   force =     0.01554725    0.08742650   -0.00002466
     atom    4 type  1   force =     0.05429977    0.05426922    0.00010186
     atom    5 type  1   force =     0.11335348    0.00607433   -0.00002564
     atom    6 type  1   force =     0.11337489   -0.00623741   -0.00008410
     atom    7 type  1   force =     0.07449739    0.01750724    0.00000490
     atom    8 type  1   force =     0.07434455   -0.01780298    0.00002789
     atom    9 type  1   force =     0.08715039   -0.01565413   -0.00003891
     atom   10 type  1   force =     0.02999830   -0.03007654   -0.00004496
     atom   11 type  1   force =     0.05435558   -0.05429030    0.00002949
     atom   12 type  1   force =     0.01555067   -0.08724185    0.00005157
     atom   13 type  1   force =     0.00615991    0.11344145    0.00007119
     atom   14 type  1   force =     0.01768140    0.07451550    0.00000658
     atom   15 type  1   force =    -0.00619862    0.11352813   -0.00001250
     atom   16 type  1   force =    -0.01772204    0.07454194    0.00012875
     atom   17 type  1   force =     0.02505745    0.02472961    0.00006157
     atom   18 type  1   force =     0.02501154   -0.02507515    0.00009733
     atom   19 type  1   force =    -0.02492968    0.02479674    0.00005706
     atom   20 type  1   force =    -0.02487348   -0.02501129    0.00003966
     atom   21 type  1   force =     0.01777476   -0.07450786   -0.00003219
     atom   22 type  1   force =     0.00625155   -0.11339683    0.00005386
     atom   23 type  1   force =    -0.01768668   -0.07450457    0.00004752
     atom   24 type  1   force =    -0.00610038   -0.11338844    0.00001069
     atom   25 type  1   force =    -0.01563756    0.08727307    0.00001350
     atom   26 type  1   force =    -0.05443265    0.05435788   -0.00009758
     atom   27 type  1   force =    -0.03018440    0.03012339   -0.00002731
     atom   28 type  1   force =    -0.08723135    0.01566689   -0.00001854
     atom   29 type  1   force =    -0.07444246    0.01770784    0.00002552
     atom   30 type  1   force =    -0.07447990   -0.01774860   -0.00002714
     atom   31 type  1   force =    -0.11339773    0.00620268   -0.00003325
     atom   32 type  1   force =    -0.11343578   -0.00626050   -0.00001764
     atom   33 type  1   force =    -0.05426936   -0.05433631   -0.00000531
     atom   34 type  1   force =    -0.01551359   -0.08728650   -0.00004274
     atom   35 type  1   force =    -0.08727352   -0.01559570   -0.00004096
     atom   36 type  1   force =    -0.03002905   -0.03003713    0.00004873
     atom   37 type  1   force =     0.03010920    0.03013263    0.00010522
     atom   38 type  1   force =     0.08730301    0.01551408   -0.00005732
     atom   39 type  1   force =     0.01544224    0.08738934   -0.00004357
     atom   40 type  1   force =     0.05425347    0.05427980   -0.00004908
     atom   41 type  1   force =     0.11347309    0.00610895    0.00004495
     atom   42 type  1   force =     0.11337380   -0.00622745    0.00002306
     atom   43 type  1   force =     0.07437722    0.01753327   -0.00008531
     atom   44 type  1   force =     0.07448222   -0.01778434    0.00002933
     atom   45 type  1   force =     0.08713614   -0.01555413   -0.00000873
     atom   46 type  1   force =     0.03017377   -0.03022875   -0.00000240
     atom   47 type  1   force =     0.05424091   -0.05430546   -0.00006496
     atom   48 type  1   force =     0.01560005   -0.08731252   -0.00001535
     atom   49 type  1   force =     0.00612601    0.11343114   -0.00008457
     atom   50 type  1   force =     0.01764159    0.07449057   -0.00002080
     atom   51 type  1   force =    -0.00618105    0.11347815    0.00005784
     atom   52 type  1   force =    -0.01776584    0.07453150   -0.00009652
     atom   53 type  1   force =     0.02502116    0.02478986   -0.00006960
     atom   54 type  1   force =     0.02499317   -0.02500318   -0.00003905
     atom   55 type  1   force =    -0.02495486    0.02487804    0.00000817
     atom   56 type  1   force =    -0.02494169   -0.02504666   -0.00004455
     atom   57 type  1   force =     0.01777039   -0.07448371   -0.00001844
     atom   58 type  1   force =     0.00618390   -0.11341187   -0.00002359
     atom   59 type  1   force =    -0.01763941   -0.07445388   -0.00000481
     atom   60 type  1   force =    -0.00614268   -0.11339416   -0.00002204
     atom   61 type  1   force =    -0.01564622    0.08724703    0.00001297
     atom   62 type  1   force =    -0.05431262    0.05431658    0.00001261
     atom   63 type  1   force =    -0.03005253    0.03011500   -0.00000822
     atom   64 type  1   force =    -0.08723331    0.01564889    0.00002065
     atom   65 type  1   force =    -0.07449801    0.01762886   -0.00002118
     atom   66 type  1   force =    -0.07442366   -0.01775808    0.00007574
     atom   67 type  1   force =    -0.11339946    0.00618268    0.00005574
     atom   68 type  1   force =    -0.11345555   -0.00627265   -0.00002917
     atom   69 type  1   force =    -0.05433993   -0.05432674   -0.00002424
     atom   70 type  1   force =    -0.01557519   -0.08728366   -0.00001381
     atom   71 type  1   force =    -0.08727117   -0.01563458    0.00005598
     atom   72 type  1   force =    -0.02997078   -0.02995668   -0.00003369

     Total force =     0.105237     Total SCF correction =     0.705399
     SCF correction compared to forces is large: reduce conv_thr to get better values

     Writing all to output data dir ./calc.save/

     init_run     :     36.76s CPU     37.37s WALL (       1 calls)
     electrons    :   3062.80s CPU   3093.84s WALL (       1 calls)
     forces       :     93.16s CPU     93.70s WALL (       1 calls)

     Called by init_run:
     wfcinit      :     35.59s CPU     36.17s WALL (       1 calls)
     wfcinit:wfcr :     35.35s CPU     35.88s WALL (       2 calls)
     potinit      :      0.14s CPU      0.14s WALL (       1 calls)
     hinit0       :      0.28s CPU      0.28s WALL (       1 calls)

     Called by electrons:
     c_bands      :   2950.11s CPU   2980.11s WALL (       9 calls)
     sum_band     :    111.57s CPU    112.50s WALL (       9 calls)
     v_of_rho     :      0.69s CPU      0.70s WALL (       9 calls)
     v_h          :      0.05s CPU      0.05s WALL (       9 calls)
     v_xc         :      0.72s CPU      0.73s WALL (      10 calls)
     mix_rho      :      0.19s CPU      0.19s WALL (       9 calls)

     Called by c_bands:
     init_us_2    :      0.14s CPU      0.14s WALL (      40 calls)
     init_us_2:cp :      0.14s CPU      0.14s WALL (      40 calls)
     ccgdiagg     :   2655.02s CPU   2681.67s WALL (      22 calls)
     wfcrot       :    329.32s CPU    333.17s WALL (      20 calls)

     Called by sum_band:
     sum_band:wei :      0.02s CPU      0.02s WALL (       9 calls)
     sum_band:loo :    111.24s CPU    112.16s WALL (       9 calls)
     sum_band:buf :      0.07s CPU      0.07s WALL (      18 calls)
     sum_band:ini :      0.06s CPU      0.06s WALL (      18 calls)

     Called by *cgdiagg:
     h_psi        :   2050.98s CPU   2070.39s WALL (  119733 calls)

     Called by h_psi:
     h_psi:calbec :    489.68s CPU    495.27s WALL (  119733 calls)
     vloc_psi     :   1047.52s CPU   1058.52s WALL (  119733 calls)
     add_vuspsi   :    511.85s CPU    514.98s WALL (  119733 calls)
     hs_1psi      :   1758.80s CPU   1774.97s WALL (  119713 calls)
     s_1psi       :    436.11s CPU    441.36s WALL (  119713 calls)

     General routines
     calbec       :    938.06s CPU    949.56s WALL (  239454 calls)
     fft          :      2.14s CPU      2.16s WALL (     125 calls)
     ffts         :      0.24s CPU      0.24s WALL (      36 calls)
     fftw         :   1089.48s CPU   1100.50s WALL (  670252 calls)

     Parallel routines
     fft_scatt_xy :     45.17s CPU     45.41s WALL (  670413 calls)
     fft_scatt_yz :    787.29s CPU    796.15s WALL (  670413 calls)

     PWSCF        :  55m19.26s CPU  56m30.92s WALL


   This run was terminated on:  17:46:33  29Mar2023            

=------------------------------------------------------------------------------=
   JOB DONE.
=------------------------------------------------------------------------------=
