
     Program PWSCF v.7.1 starts on  6Apr2023 at 14: 6:45 

     This program is part of the open-source Quantum ESPRESSO suite
     for quantum simulation of materials; please cite
         "P. Giannozzi et al., J. Phys.:Condens. Matter 21 395502 (2009);
         "P. Giannozzi et al., J. Phys.:Condens. Matter 29 465901 (2017);
         "P. Giannozzi et al., J. Chem. Phys. 152 154105 (2020);
          URL http://www.quantum-espresso.org", 
     in publications or presentations arising from this work. More details at
     http://www.quantum-espresso.org/quote

     Parallel version (MPI), running on   240 processors

     MPI processes distributed on    20 nodes
     171714 MiB available memory on the printing compute node when the environment starts

     Reading input from pw.inp

     Current dimensions of program PWSCF are:
     Max number of different atomic species (ntypx) = 10
     Max number of k-points (npk) =  40000
     Max angular momentum in pseudopotentials (lmaxx) =  4
     Message from routine cell_base_init:
     DEPRECATED: use true lattice parameter, not A to a.u. conversion factor

     IMPORTANT: XC functional enforced from input :
     Exchange-correlation= SCAN
                           (   0   0   0   0   0 263 267)
     Any further DFT definition will be discarded
     Please, verify this is what you really want


     gamma-point specific algorithms are used

     K-points division:     npool     =       2
     R & G space division:  proc/nbgrp/npool/nimage =     120
     Subspace diagonalization in iterative solution of the eigenvalue problem:
     one sub-group per band group will be used
     scalapack distributed-memory algorithm (size of sub-group: 10* 10 procs)


     Parallelization info
     --------------------
     sticks:   dense  smooth     PW     G-vecs:    dense   smooth      PW
     Min         231     231     57                29250    29250    3648
     Max         234     234     60                29264    29264    3664
     Sum       27919   27919   6971              3510819  3510819  438905

     Using Slab Decomposition



     bravais-lattice index     =            0
     lattice parameter (alat)  =       1.0000  a.u.
     unit-cell volume          =   25987.7199 (a.u.)^3
     number of atoms/cell      =          376
     number of atomic types    =            3
     number of electrons       =      2690.00
     number of Kohn-Sham states=         1619
     kinetic-energy cutoff     =     100.0000  Ry
     charge density cutoff     =     400.0000  Ry
     scf convergence threshold =      1.0E+01
     mixing beta               =       0.5000
     number of iterations used =            8  TF        mixing
     Exchange-correlation= SCAN
                           (   0   0   0   0   0 263 267)

     celldm(1)=   1.000000  celldm(2)=   0.000000  celldm(3)=   0.000000
     celldm(4)=   0.000000  celldm(5)=   0.000000  celldm(6)=   0.000000

     crystal axes: (cart. coord. in units of alat)
               a(1) = (   0.000000  30.411142   0.000000 )  
               a(2) = (  28.837810   0.000000   0.000000 )  
               a(3) = (   0.000000 -17.236742 -29.632833 )  

     reciprocal axes: (cart. coord. in units 2 pi/alat)
               b(1) = (  0.000000  0.032883 -0.019127 )  
               b(2) = (  0.034677 -0.000000  0.000000 )  
               b(3) = (  0.000000  0.000000 -0.033746 )  


     PseudoPot. # 1 for Ni read from file:
     .././Ni.UPF
     MD5 check sum: 84bdea402ee3d845217826375fc904d9
     Pseudo is Norm-conserving, Zval = 18.0
     Generated using ONCVPSP code by D. R. Hamann
     Using radial grid of 1370 points,  6 beta functions with: 
                l(1) =   0
                l(2) =   0
                l(3) =   1
                l(4) =   1
                l(5) =   2
                l(6) =   2

     PseudoPot. # 2 for C  read from file:
     .././C.UPF
     MD5 check sum: ef557580a2ad6409059df8753128406d
     Pseudo is Norm-conserving, Zval =  4.0
     Generated using ONCVPSP code by D. R. Hamann
     Using radial grid of 1246 points,  4 beta functions with: 
                l(1) =   0
                l(2) =   0
                l(3) =   1
                l(4) =   1

     PseudoPot. # 3 for O  read from file:
     .././O.UPF
     MD5 check sum: 7bd5a973d633692278b8b7f329492a4b
     Pseudo is Norm-conserving, Zval =  6.0
     Generated using ONCVPSP code by D. R. Hamann
     Using radial grid of  934 points,  4 beta functions with: 
                l(1) =   0
                l(2) =   0
                l(3) =   1
                l(4) =   1

     atomic species   valence    mass     pseudopotential
        Ni            18.00    59.00000     Ni( 1.00)
        C              4.00    12.00000     C ( 1.00)
        O              6.00    16.00000     O ( 1.00)

     Starting magnetic structure 
     atomic species   magnetization
        Ni           1.000
        C            0.000
        O            0.000

     No symmetry found


                                    s                        frac. trans.

      isym =  1     identity                                     

 cryst.   s( 1) = (     1          0          0      )
                  (     0          1          0      )
                  (     0          0          1      )

 cart.    s( 1) = (  1.0000000  0.0000000  0.0000000 )
                  (  0.0000000  1.0000000 -0.0000000 )
                  (  0.0000000  0.0000000  1.0000000 )


   Cartesian axes

     site n.     atom                  positions (alat units)
         1           Ni  tau(   1) = (   4.8063017  -2.8727903  -4.9388055  )
         2           Ni  tau(   2) = (   0.0000000   0.0000000   0.0000000  )
         3           Ni  tau(   3) = (  14.4189050  -2.8727903  -4.9388055  )
         4           Ni  tau(   4) = (   9.6126034   0.0000000   0.0000000  )
         5           Ni  tau(   5) = (  24.0315084  -2.8727903  -4.9388055  )
         6           Ni  tau(   6) = (  19.2252067   0.0000000   0.0000000  )
         7           Ni  tau(   7) = (   4.8063017   7.2642570  -4.9388055  )
         8           Ni  tau(   8) = (   0.0000000  10.1370473   0.0000000  )
         9           Ni  tau(   9) = (  14.4189050   7.2642570  -4.9388055  )
        10           Ni  tau(  10) = (   9.6126034  10.1370473   0.0000000  )
        11           Ni  tau(  11) = (  24.0315084   7.2642570  -4.9388055  )
        12           Ni  tau(  12) = (  19.2252067  10.1370473   0.0000000  )
        13           Ni  tau(  13) = (   4.8063017  17.4013044  -4.9388055  )
        14           Ni  tau(  14) = (   0.0000000  20.2740947   0.0000000  )
        15           Ni  tau(  15) = (  14.4189050  17.4013044  -4.9388055  )
        16           Ni  tau(  16) = (   9.6126034  20.2740947   0.0000000  )
        17           Ni  tau(  17) = (  24.0315084  17.4013044  -4.9388055  )
        18           Ni  tau(  18) = (  19.2252067  20.2740947   0.0000000  )
        19           Ni  tau(  19) = (   4.8063017  -8.6183709 -14.8164164  )
        20           Ni  tau(  20) = (   0.0000000  -5.7455806  -9.8776109  )
        21           Ni  tau(  21) = (  14.4189050  -8.6183709 -14.8164164  )
        22           Ni  tau(  22) = (   9.6126034  -5.7455806  -9.8776109  )
        23           Ni  tau(  23) = (  24.0315084  -8.6183709 -14.8164164  )
        24           Ni  tau(  24) = (  19.2252067  -5.7455806  -9.8776109  )
        25           Ni  tau(  25) = (   4.8063017   1.5186764 -14.8164164  )
        26           Ni  tau(  26) = (   0.0000000   4.3914667  -9.8776109  )
        27           Ni  tau(  27) = (  14.4189050   1.5186764 -14.8164164  )
        28           Ni  tau(  28) = (   9.6126034   4.3914667  -9.8776109  )
        29           Ni  tau(  29) = (  24.0315084   1.5186764 -14.8164164  )
        30           Ni  tau(  30) = (  19.2252067   4.3914667  -9.8776109  )
        31           Ni  tau(  31) = (   4.8063017  11.6557238 -14.8164164  )
        32           Ni  tau(  32) = (   0.0000000  14.5285141  -9.8776109  )
        33           Ni  tau(  33) = (  14.4189050  11.6557238 -14.8164164  )
        34           Ni  tau(  34) = (   9.6126034  14.5285141  -9.8776109  )
        35           Ni  tau(  35) = (  24.0315084  11.6557238 -14.8164164  )
        36           Ni  tau(  36) = (  19.2252067  14.5285141  -9.8776109  )
        37           Ni  tau(  37) = (   4.8063017 -14.3639515 -24.6940273  )
        38           Ni  tau(  38) = (   0.0000000 -11.4911612 -19.7552219  )
        39           Ni  tau(  39) = (  14.4189050 -14.3639515 -24.6940273  )
        40           Ni  tau(  40) = (   9.6126034 -11.4911612 -19.7552219  )
        41           Ni  tau(  41) = (  24.0315084 -14.3639515 -24.6940273  )
        42           Ni  tau(  42) = (  19.2252067 -11.4911612 -19.7552219  )
        43           Ni  tau(  43) = (   4.8063017  -4.2269042 -24.6940273  )
        44           Ni  tau(  44) = (   0.0000000  -1.3541139 -19.7552219  )
        45           Ni  tau(  45) = (  14.4189050  -4.2269042 -24.6940273  )
        46           Ni  tau(  46) = (   9.6126034  -1.3541139 -19.7552219  )
        47           Ni  tau(  47) = (  24.0315084  -4.2269042 -24.6940273  )
        48           Ni  tau(  48) = (  19.2252067  -1.3541139 -19.7552219  )
        49           Ni  tau(  49) = (   4.8063017   5.9101431 -24.6940273  )
        50           Ni  tau(  50) = (   0.0000000   8.7829334 -19.7552219  )
        51           Ni  tau(  51) = (  14.4189050   5.9101431 -24.6940273  )
        52           Ni  tau(  52) = (   9.6126034   8.7829334 -19.7552219  )
        53           Ni  tau(  53) = (  24.0315084   5.9101431 -24.6940273  )
        54           Ni  tau(  54) = (  19.2252067   8.7829334 -19.7552219  )
        55           C   tau(  55) = (   5.9644954   2.2506991  -4.0580090  )
        56           C   tau(  56) = (   1.1581937   5.0135579  -0.8807964  )
        57           C   tau(  57) = (   8.4544096  -0.6220912  -8.9968145  )
        58           C   tau(  58) = (  15.5770988   2.2506991  -4.0580090  )
        59           C   tau(  59) = (  10.7707971   5.0135579  -0.8807964  )
        60           C   tau(  60) = (  13.2607113   2.1407676  -5.8196019  )
        61           C   tau(  61) = (  18.0670130  -0.6220912  -8.9968145  )
        62           C   tau(  62) = (  25.1897021   2.2506991  -4.0580090  )
        63           C   tau(  63) = (  20.3834005   5.0135579  -0.8807964  )
        64           C   tau(  64) = (  22.8733147   2.1407676  -5.8196019  )
        65           C   tau(  65) = (  27.6796163  -0.6220912  -8.9968145  )
        66           C   tau(  66) = (   5.9644954  12.3877464  -4.0580090  )
        67           C   tau(  67) = (   1.1581937  15.1506053  -0.8807964  )
        68           C   tau(  68) = (   3.6481079  12.2778150  -5.8196019  )
        69           C   tau(  69) = (   8.4544096   9.5149561  -8.9968145  )
        70           C   tau(  70) = (  15.5770988  12.3877464  -4.0580090  )
        71           C   tau(  71) = (  10.7707971  15.1506053  -0.8807964  )
        72           C   tau(  72) = (  13.2607113  12.2778150  -5.8196019  )
        73           C   tau(  73) = (  18.0670130   9.5149561  -8.9968145  )
        74           C   tau(  74) = (  25.1897021  12.3877464  -4.0580090  )
        75           C   tau(  75) = (  20.3834005  15.1506053  -0.8807964  )
        76           C   tau(  76) = (  22.8733147  12.2778150  -5.8196019  )
        77           C   tau(  77) = (  27.6796163   9.5149561  -8.9968145  )
        78           C   tau(  78) = (   5.9644954  22.5247938  -4.0580090  )
        79           C   tau(  79) = (   1.1581937  25.2876526  -0.8807964  )
        80           C   tau(  80) = (   3.6481079  22.4148623  -5.8196019  )
        81           C   tau(  81) = (   8.4544096  19.6520035  -8.9968145  )
        82           C   tau(  82) = (  15.5770988  22.5247938  -4.0580090  )
        83           C   tau(  83) = (  10.7707971  25.2876526  -0.8807964  )
        84           C   tau(  84) = (  13.2607113  22.4148623  -5.8196019  )
        85           C   tau(  85) = (  18.0670130  19.6520035  -8.9968145  )
        86           C   tau(  86) = (  25.1897021  22.5247938  -4.0580090  )
        87           C   tau(  87) = (  20.3834005  25.2876526  -0.8807964  )
        88           C   tau(  88) = (  22.8733147  22.4148623  -5.8196019  )
        89           C   tau(  89) = (  27.6796163  19.6520035  -8.9968145  )
        90           C   tau(  90) = (   5.9644954  -3.4948815 -13.9356200  )
        91           C   tau(  91) = (   1.1581937  -0.7320227 -10.7584074  )
        92           C   tau(  92) = (   3.6481079  -3.6048130 -15.6972128  )
        93           C   tau(  93) = (   8.4544096  -6.3676718 -18.8744254  )
        94           C   tau(  94) = (  15.5770988  -3.4948815 -13.9356200  )
        95           C   tau(  95) = (  10.7707971  -0.7320227 -10.7584074  )
        96           C   tau(  96) = (  13.2607113  -3.6048130 -15.6972128  )
        97           C   tau(  97) = (  18.0670130  -6.3676718 -18.8744254  )
        98           C   tau(  98) = (  25.1897021  -3.4948815 -13.9356200  )
        99           C   tau(  99) = (  20.3834005  -0.7320227 -10.7584074  )
       100           C   tau( 100) = (  22.8733147  -3.6048130 -15.6972128  )
       101           C   tau( 101) = (  27.6796163  -6.3676718 -18.8744254  )
       102           C   tau( 102) = (   5.9644954   6.6421658 -13.9356200  )
       103           C   tau( 103) = (   1.1581937   9.4050247 -10.7584074  )
       104           C   tau( 104) = (   3.6481079   6.5322344 -15.6972128  )
       105           C   tau( 105) = (   8.4544096   3.7693755 -18.8744254  )
       106           C   tau( 106) = (  15.5770988   6.6421658 -13.9356200  )
       107           C   tau( 107) = (  10.7707971   9.4050247 -10.7584074  )
       108           C   tau( 108) = (  13.2607113   6.5322344 -15.6972128  )
       109           C   tau( 109) = (  18.0670130   3.7693755 -18.8744254  )
       110           C   tau( 110) = (  25.1897021   6.6421658 -13.9356200  )
       111           C   tau( 111) = (  20.3834005   9.4050247 -10.7584074  )
       112           C   tau( 112) = (  22.8733147   6.5322344 -15.6972128  )
       113           C   tau( 113) = (  27.6796163   3.7693755 -18.8744254  )
       114           C   tau( 114) = (   5.9644954  16.7792131 -13.9356200  )
       115           C   tau( 115) = (   1.1581937  19.5420720 -10.7584074  )
       116           C   tau( 116) = (   3.6481079  16.6692817 -15.6972128  )
       117           C   tau( 117) = (   8.4544096  13.9064228 -18.8744254  )
       118           C   tau( 118) = (  15.5770988  16.7792131 -13.9356200  )
       119           C   tau( 119) = (  10.7707971  19.5420720 -10.7584074  )
       120           C   tau( 120) = (  13.2607113  16.6692817 -15.6972128  )
       121           C   tau( 121) = (  18.0670130  13.9064228 -18.8744254  )
       122           C   tau( 122) = (  25.1897021  16.7792131 -13.9356200  )
       123           C   tau( 123) = (  20.3834005  19.5420720 -10.7584074  )
       124           C   tau( 124) = (  22.8733147  16.6692817 -15.6972128  )
       125           C   tau( 125) = (  27.6796163  13.9064228 -18.8744254  )
       126           C   tau( 126) = (   5.9644954  -9.2404621 -23.8132309  )
       127           C   tau( 127) = (   1.1581937  -6.4776033 -20.6360183  )
       128           C   tau( 128) = (   3.6481079  -9.3503936 -25.5748238  )
       129           C   tau( 129) = (   8.4544096 -12.1132524 -28.7520364  )
       130           C   tau( 130) = (  15.5770988  -9.2404621 -23.8132309  )
       131           C   tau( 131) = (  10.7707971  -6.4776033 -20.6360183  )
       132           C   tau( 132) = (  13.2607113  -9.3503936 -25.5748238  )
       133           C   tau( 133) = (  18.0670130 -12.1132524 -28.7520364  )
       134           C   tau( 134) = (  25.1897021  -9.2404621 -23.8132309  )
       135           C   tau( 135) = (  20.3834005  -6.4776033 -20.6360183  )
       136           C   tau( 136) = (  22.8733147  -9.3503936 -25.5748238  )
       137           C   tau( 137) = (  27.6796163 -12.1132524 -28.7520364  )
       138           C   tau( 138) = (   5.9644954   0.8965852 -23.8132309  )
       139           C   tau( 139) = (   1.1581937   3.6594441 -20.6360183  )
       140           C   tau( 140) = (   3.6481079   0.7866537 -25.5748238  )
       141           C   tau( 141) = (   8.4544096  -1.9762051 -28.7520364  )
       142           C   tau( 142) = (  15.5770988   0.8965852 -23.8132309  )
       143           C   tau( 143) = (  10.7707971   3.6594441 -20.6360183  )
       144           C   tau( 144) = (  13.2607113   0.7866537 -25.5748238  )
       145           C   tau( 145) = (  18.0670130  -1.9762051 -28.7520364  )
       146           C   tau( 146) = (  25.1897021   0.8965852 -23.8132309  )
       147           C   tau( 147) = (  20.3834005   3.6594441 -20.6360183  )
       148           C   tau( 148) = (  22.8733147   0.7866537 -25.5748238  )
       149           C   tau( 149) = (  27.6796163  -1.9762051 -28.7520364  )
       150           C   tau( 150) = (   5.9644954  11.0336325 -23.8132309  )
       151           C   tau( 151) = (   1.1581937  13.7964914 -20.6360183  )
       152           C   tau( 152) = (   3.6481079  10.9237011 -25.5748238  )
       153           C   tau( 153) = (   8.4544096   8.1608422 -28.7520364  )
       154           C   tau( 154) = (  15.5770988  11.0336325 -23.8132309  )
       155           C   tau( 155) = (  10.7707971  13.7964914 -20.6360183  )
       156           C   tau( 156) = (  13.2607113  10.9237011 -25.5748238  )
       157           C   tau( 157) = (  18.0670130   8.1608422 -28.7520364  )
       158           C   tau( 158) = (  25.1897021  11.0336325 -23.8132309  )
       159           C   tau( 159) = (  20.3834005  13.7964914 -20.6360183  )
       160           C   tau( 160) = (  22.8733147  10.9237011 -25.5748238  )
       161           C   tau( 161) = (  27.6796163   8.1608422 -28.7520364  )
       162           O   tau( 162) = (   2.8122056   4.2227277  -6.7025319  )
       163           O   tau( 163) = (   7.6185072  -2.7040513  -8.1138845  )
       164           O   tau( 164) = (   6.8003978   0.1687390  -3.1750790  )
       165           O   tau( 165) = (   1.9940961   7.0955180  -1.7637265  )
       166           O   tau( 166) = (   6.8795095   4.4078477  -3.6179615  )
       167           O   tau( 167) = (   2.0732078   2.8564094  -1.3208440  )
       168           O   tau( 168) = (   2.7330938  -0.0163809  -6.2596495  )
       169           O   tau( 169) = (   7.5393955   1.5350574  -8.5567669  )
       170           O   tau( 170) = (  12.4248089   4.2227277  -6.7025319  )
       171           O   tau( 171) = (  17.2311106  -2.7040513  -8.1138845  )
       172           O   tau( 172) = (  16.4130012   0.1687390  -3.1750790  )
       173           O   tau( 173) = (  11.6066995   7.0955180  -1.7637265  )
       174           O   tau( 174) = (  16.4921129   4.4078477  -3.6179615  )
       175           O   tau( 175) = (  11.6858112   2.8564094  -1.3208440  )
       176           O   tau( 176) = (  12.3456972  -0.0163809  -6.2596495  )
       177           O   tau( 177) = (  17.1519989   1.5350574  -8.5567669  )
       178           O   tau( 178) = (  22.0374123   4.2227277  -6.7025319  )
       179           O   tau( 179) = (  26.8437140  -2.7040513  -8.1138845  )
       180           O   tau( 180) = (  26.0256045   0.1687390  -3.1750790  )
       181           O   tau( 181) = (  21.2193028   7.0955180  -1.7637265  )
       182           O   tau( 182) = (  26.1047162   4.4078477  -3.6179615  )
       183           O   tau( 183) = (  21.2984146   2.8564094  -1.3208440  )
       184           O   tau( 184) = (  21.9583006  -0.0163809  -6.2596495  )
       185           O   tau( 185) = (  26.7646022   1.5350574  -8.5567669  )
       186           O   tau( 186) = (   2.8122056  14.3597750  -6.7025319  )
       187           O   tau( 187) = (   7.6185072   7.4329960  -8.1138845  )
       188           O   tau( 188) = (   6.8003978  10.3057864  -3.1750790  )
       189           O   tau( 189) = (   1.9940961  17.2325653  -1.7637265  )
       190           O   tau( 190) = (   6.8795095  14.5448950  -3.6179615  )
       191           O   tau( 191) = (   2.0732078  12.9934567  -1.3208440  )
       192           O   tau( 192) = (   2.7330938  10.1206664  -6.2596495  )
       193           O   tau( 193) = (   7.5393955  11.6721047  -8.5567669  )
       194           O   tau( 194) = (  12.4248089  14.3597750  -6.7025319  )
       195           O   tau( 195) = (  17.2311106   7.4329960  -8.1138845  )
       196           O   tau( 196) = (  16.4130012  10.3057864  -3.1750790  )
       197           O   tau( 197) = (  11.6066995  17.2325653  -1.7637265  )
       198           O   tau( 198) = (  16.4921129  14.5448950  -3.6179615  )
       199           O   tau( 199) = (  11.6858112  12.9934567  -1.3208440  )
       200           O   tau( 200) = (  12.3456972  10.1206664  -6.2596495  )
       201           O   tau( 201) = (  17.1519989  11.6721047  -8.5567669  )
       202           O   tau( 202) = (  22.0374123  14.3597750  -6.7025319  )
       203           O   tau( 203) = (  26.8437140   7.4329960  -8.1138845  )
       204           O   tau( 204) = (  26.0256045  10.3057864  -3.1750790  )
       205           O   tau( 205) = (  21.2193028  17.2325653  -1.7637265  )
       206           O   tau( 206) = (  26.1047162  14.5448950  -3.6179615  )
       207           O   tau( 207) = (  21.2984146  12.9934567  -1.3208440  )
       208           O   tau( 208) = (  21.9583006  10.1206664  -6.2596495  )
       209           O   tau( 209) = (  26.7646022  11.6721047  -8.5567669  )
       210           O   tau( 210) = (   2.8122056  24.4968224  -6.7025319  )
       211           O   tau( 211) = (   7.6185072  17.5700434  -8.1138845  )
       212           O   tau( 212) = (   6.8003978  20.4428337  -3.1750790  )
       213           O   tau( 213) = (   1.9940961  27.3696127  -1.7637265  )
       214           O   tau( 214) = (   6.8795095  24.6819423  -3.6179615  )
       215           O   tau( 215) = (   2.0732078  23.1305040  -1.3208440  )
       216           O   tau( 216) = (   2.7330938  20.2577137  -6.2596495  )
       217           O   tau( 217) = (   7.5393955  21.8091520  -8.5567669  )
       218           O   tau( 218) = (  12.4248089  24.4968224  -6.7025319  )
       219           O   tau( 219) = (  17.2311106  17.5700434  -8.1138845  )
       220           O   tau( 220) = (  16.4130012  20.4428337  -3.1750790  )
       221           O   tau( 221) = (  11.6066995  27.3696127  -1.7637265  )
       222           O   tau( 222) = (  16.4921129  24.6819423  -3.6179615  )
       223           O   tau( 223) = (  11.6858112  23.1305040  -1.3208440  )
       224           O   tau( 224) = (  12.3456972  20.2577137  -6.2596495  )
       225           O   tau( 225) = (  17.1519989  21.8091520  -8.5567669  )
       226           O   tau( 226) = (  22.0374123  24.4968224  -6.7025319  )
       227           O   tau( 227) = (  26.8437140  17.5700434  -8.1138845  )
       228           O   tau( 228) = (  26.0256045  20.4428337  -3.1750790  )
       229           O   tau( 229) = (  21.2193028  27.3696127  -1.7637265  )
       230           O   tau( 230) = (  26.1047162  24.6819423  -3.6179615  )
       231           O   tau( 231) = (  21.2984146  23.1305040  -1.3208440  )
       232           O   tau( 232) = (  21.9583006  20.2577137  -6.2596495  )
       233           O   tau( 233) = (  26.7646022  21.8091520  -8.5567669  )
       234           O   tau( 234) = (   2.8122056  -1.5228529 -16.5801429  )
       235           O   tau( 235) = (   7.6185072  -8.4496319 -17.9914954  )
       236           O   tau( 236) = (   6.8003978  -5.5768416 -13.0526900  )
       237           O   tau( 237) = (   1.9940961   1.3499374 -11.6413374  )
       238           O   tau( 238) = (   6.8795095  -1.3377329 -13.4955724  )
       239           O   tau( 239) = (   2.0732078  -2.8891712 -11.1984549  )
       240           O   tau( 240) = (   2.7330938  -5.7619615 -16.1372604  )
       241           O   tau( 241) = (   7.5393955  -4.2105233 -18.4343779  )
       242           O   tau( 242) = (  12.4248089  -1.5228529 -16.5801429  )
       243           O   tau( 243) = (  17.2311106  -8.4496319 -17.9914954  )
       244           O   tau( 244) = (  16.4130012  -5.5768416 -13.0526900  )
       245           O   tau( 245) = (  11.6066995   1.3499374 -11.6413374  )
       246           O   tau( 246) = (  16.4921129  -1.3377329 -13.4955724  )
       247           O   tau( 247) = (  11.6858112  -2.8891712 -11.1984549  )
       248           O   tau( 248) = (  12.3456972  -5.7619615 -16.1372604  )
       249           O   tau( 249) = (  17.1519989  -4.2105233 -18.4343779  )
       250           O   tau( 250) = (  22.0374123  -1.5228529 -16.5801429  )
       251           O   tau( 251) = (  26.8437140  -8.4496319 -17.9914954  )
       252           O   tau( 252) = (  26.0256045  -5.5768416 -13.0526900  )
       253           O   tau( 253) = (  21.2193028   1.3499374 -11.6413374  )
       254           O   tau( 254) = (  26.1047162  -1.3377329 -13.4955724  )
       255           O   tau( 255) = (  21.2984146  -2.8891712 -11.1984549  )
       256           O   tau( 256) = (  21.9583006  -5.7619615 -16.1372604  )
       257           O   tau( 257) = (  26.7646022  -4.2105233 -18.4343779  )
       258           O   tau( 258) = (   2.8122056   8.6141944 -16.5801429  )
       259           O   tau( 259) = (   7.6185072   1.6874154 -17.9914954  )
       260           O   tau( 260) = (   6.8003978   4.5602057 -13.0526900  )
       261           O   tau( 261) = (   1.9940961  11.4869847 -11.6413374  )
       262           O   tau( 262) = (   6.8795095   8.7993144 -13.4955724  )
       263           O   tau( 263) = (   2.0732078   7.2478761 -11.1984549  )
       264           O   tau( 264) = (   2.7330938   4.3750858 -16.1372604  )
       265           O   tau( 265) = (   7.5393955   5.9265241 -18.4343779  )
       266           O   tau( 266) = (  12.4248089   8.6141944 -16.5801429  )
       267           O   tau( 267) = (  17.2311106   1.6874154 -17.9914954  )
       268           O   tau( 268) = (  16.4130012   4.5602057 -13.0526900  )
       269           O   tau( 269) = (  11.6066995  11.4869847 -11.6413374  )
       270           O   tau( 270) = (  16.4921129   8.7993144 -13.4955724  )
       271           O   tau( 271) = (  11.6858112   7.2478761 -11.1984549  )
       272           O   tau( 272) = (  12.3456972   4.3750858 -16.1372604  )
       273           O   tau( 273) = (  17.1519989   5.9265241 -18.4343779  )
       274           O   tau( 274) = (  22.0374123   8.6141944 -16.5801429  )
       275           O   tau( 275) = (  26.8437140   1.6874154 -17.9914954  )
       276           O   tau( 276) = (  26.0256045   4.5602057 -13.0526900  )
       277           O   tau( 277) = (  21.2193028  11.4869847 -11.6413374  )
       278           O   tau( 278) = (  26.1047162   8.7993144 -13.4955724  )
       279           O   tau( 279) = (  21.2984146   7.2478761 -11.1984549  )
       280           O   tau( 280) = (  21.9583006   4.3750858 -16.1372604  )
       281           O   tau( 281) = (  26.7646022   5.9265241 -18.4343779  )
       282           O   tau( 282) = (   2.8122056  18.7512418 -16.5801429  )
       283           O   tau( 283) = (   7.6185072  11.8244628 -17.9914954  )
       284           O   tau( 284) = (   6.8003978  14.6972531 -13.0526900  )
       285           O   tau( 285) = (   1.9940961  21.6240321 -11.6413374  )
       286           O   tau( 286) = (   6.8795095  18.9363617 -13.4955724  )
       287           O   tau( 287) = (   2.0732078  17.3849234 -11.1984549  )
       288           O   tau( 288) = (   2.7330938  14.5121331 -16.1372604  )
       289           O   tau( 289) = (   7.5393955  16.0635714 -18.4343779  )
       290           O   tau( 290) = (  12.4248089  18.7512418 -16.5801429  )
       291           O   tau( 291) = (  17.2311106  11.8244628 -17.9914954  )
       292           O   tau( 292) = (  16.4130012  14.6972531 -13.0526900  )
       293           O   tau( 293) = (  11.6066995  21.6240321 -11.6413374  )
       294           O   tau( 294) = (  16.4921129  18.9363617 -13.4955724  )
       295           O   tau( 295) = (  11.6858112  17.3849234 -11.1984549  )
       296           O   tau( 296) = (  12.3456972  14.5121331 -16.1372604  )
       297           O   tau( 297) = (  17.1519989  16.0635714 -18.4343779  )
       298           O   tau( 298) = (  22.0374123  18.7512418 -16.5801429  )
       299           O   tau( 299) = (  26.8437140  11.8244628 -17.9914954  )
       300           O   tau( 300) = (  26.0256045  14.6972531 -13.0526900  )
       301           O   tau( 301) = (  21.2193028  21.6240321 -11.6413374  )
       302           O   tau( 302) = (  26.1047162  18.9363617 -13.4955724  )
       303           O   tau( 303) = (  21.2984146  17.3849234 -11.1984549  )
       304           O   tau( 304) = (  21.9583006  14.5121331 -16.1372604  )
       305           O   tau( 305) = (  26.7646022  16.0635714 -18.4343779  )
       306           O   tau( 306) = (   2.8122056  -7.2684335 -26.4577538  )
       307           O   tau( 307) = (   7.6185072 -14.1952125 -27.8691064  )
       308           O   tau( 308) = (   6.8003978 -11.3224222 -22.9303009  )
       309           O   tau( 309) = (   1.9940961  -4.3956432 -21.5189483  )
       310           O   tau( 310) = (   6.8795095  -7.0833136 -23.3731833  )
       311           O   tau( 311) = (   2.0732078  -8.6347519 -21.0760659  )
       312           O   tau( 312) = (   2.7330938 -11.5075422 -26.0148714  )
       313           O   tau( 313) = (   7.5393955  -9.9561039 -28.3119888  )
       314           O   tau( 314) = (  12.4248089  -7.2684335 -26.4577538  )
       315           O   tau( 315) = (  17.2311106 -14.1952125 -27.8691064  )
       316           O   tau( 316) = (  16.4130012 -11.3224222 -22.9303009  )
       317           O   tau( 317) = (  11.6066995  -4.3956432 -21.5189483  )
       318           O   tau( 318) = (  16.4921129  -7.0833136 -23.3731833  )
       319           O   tau( 319) = (  11.6858112  -8.6347519 -21.0760659  )
       320           O   tau( 320) = (  12.3456972 -11.5075422 -26.0148714  )
       321           O   tau( 321) = (  17.1519989  -9.9561039 -28.3119888  )
       322           O   tau( 322) = (  22.0374123  -7.2684335 -26.4577538  )
       323           O   tau( 323) = (  26.8437140 -14.1952125 -27.8691064  )
       324           O   tau( 324) = (  26.0256045 -11.3224222 -22.9303009  )
       325           O   tau( 325) = (  21.2193028  -4.3956432 -21.5189483  )
       326           O   tau( 326) = (  26.1047162  -7.0833136 -23.3731833  )
       327           O   tau( 327) = (  21.2984146  -8.6347519 -21.0760659  )
       328           O   tau( 328) = (  21.9583006 -11.5075422 -26.0148714  )
       329           O   tau( 329) = (  26.7646022  -9.9561039 -28.3119888  )
       330           O   tau( 330) = (   2.8122056   2.8686138 -26.4577538  )
       331           O   tau( 331) = (   7.6185072  -4.0581652 -27.8691064  )
       332           O   tau( 332) = (   6.8003978  -1.1853749 -22.9303009  )
       333           O   tau( 333) = (   1.9940961   5.7414041 -21.5189483  )
       334           O   tau( 334) = (   6.8795095   3.0537338 -23.3731833  )
       335           O   tau( 335) = (   2.0732078   1.5022955 -21.0760659  )
       336           O   tau( 336) = (   2.7330938  -1.3704948 -26.0148714  )
       337           O   tau( 337) = (   7.5393955   0.1809435 -28.3119888  )
       338           O   tau( 338) = (  12.4248089   2.8686138 -26.4577538  )
       339           O   tau( 339) = (  17.2311106  -4.0581652 -27.8691064  )
       340           O   tau( 340) = (  16.4130012  -1.1853749 -22.9303009  )
       341           O   tau( 341) = (  11.6066995   5.7414041 -21.5189483  )
       342           O   tau( 342) = (  16.4921129   3.0537338 -23.3731833  )
       343           O   tau( 343) = (  11.6858112   1.5022955 -21.0760659  )
       344           O   tau( 344) = (  12.3456972  -1.3704948 -26.0148714  )
       345           O   tau( 345) = (  17.1519989   0.1809435 -28.3119888  )
       346           O   tau( 346) = (  22.0374123   2.8686138 -26.4577538  )
       347           O   tau( 347) = (  26.8437140  -4.0581652 -27.8691064  )
       348           O   tau( 348) = (  26.0256045  -1.1853749 -22.9303009  )
       349           O   tau( 349) = (  21.2193028   5.7414041 -21.5189483  )
       350           O   tau( 350) = (  26.1047162   3.0537338 -23.3731833  )
       351           O   tau( 351) = (  21.2984146   1.5022955 -21.0760659  )
       352           O   tau( 352) = (  21.9583006  -1.3704948 -26.0148714  )
       353           O   tau( 353) = (  26.7646022   0.1809435 -28.3119888  )
       354           O   tau( 354) = (   2.8122056  13.0056611 -26.4577538  )
       355           O   tau( 355) = (   7.6185072   6.0788822 -27.8691064  )
       356           O   tau( 356) = (   6.8003978   8.9516725 -22.9303009  )
       357           O   tau( 357) = (   1.9940961  15.8784515 -21.5189483  )
       358           O   tau( 358) = (   6.8795095  13.1907811 -23.3731833  )
       359           O   tau( 359) = (   2.0732078  11.6393428 -21.0760659  )
       360           O   tau( 360) = (   2.7330938   8.7665525 -26.0148714  )
       361           O   tau( 361) = (   7.5393955  10.3179908 -28.3119888  )
       362           O   tau( 362) = (  12.4248089  13.0056611 -26.4577538  )
       363           O   tau( 363) = (  17.2311106   6.0788822 -27.8691064  )
       364           O   tau( 364) = (  16.4130012   8.9516725 -22.9303009  )
       365           O   tau( 365) = (  11.6066995  15.8784515 -21.5189483  )
       366           O   tau( 366) = (  16.4921129  13.1907811 -23.3731833  )
       367           O   tau( 367) = (  11.6858112  11.6393428 -21.0760659  )
       368           O   tau( 368) = (  12.3456972   8.7665525 -26.0148714  )
       369           O   tau( 369) = (  17.1519989  10.3179908 -28.3119888  )
       370           O   tau( 370) = (  22.0374123  13.0056611 -26.4577538  )
       371           O   tau( 371) = (  26.8437140   6.0788822 -27.8691064  )
       372           O   tau( 372) = (  26.0256045   8.9516725 -22.9303009  )
       373           O   tau( 373) = (  21.2193028  15.8784515 -21.5189483  )
       374           O   tau( 374) = (  26.1047162  13.1907811 -23.3731833  )
       375           O   tau( 375) = (  21.9583006   8.7665525 -26.0148714  )
       376           O   tau( 376) = (  26.7646022  10.3179908 -28.3119888  )

   Crystallographic axes

     site n.     atom                  positions (cryst. coord.)
         1           Ni  tau(   1) = (  0.0000000  0.1666667  0.1666667  )
         2           Ni  tau(   2) = (  0.0000000  0.0000000  0.0000000  )
         3           Ni  tau(   3) = (  0.0000000  0.5000000  0.1666667  )
         4           Ni  tau(   4) = (  0.0000000  0.3333333  0.0000000  )
         5           Ni  tau(   5) = (  0.0000000  0.8333333  0.1666667  )
         6           Ni  tau(   6) = (  0.0000000  0.6666667  0.0000000  )
         7           Ni  tau(   7) = (  0.3333333  0.1666667  0.1666667  )
         8           Ni  tau(   8) = (  0.3333333  0.0000000  0.0000000  )
         9           Ni  tau(   9) = (  0.3333333  0.5000000  0.1666667  )
        10           Ni  tau(  10) = (  0.3333333  0.3333333  0.0000000  )
        11           Ni  tau(  11) = (  0.3333333  0.8333333  0.1666667  )
        12           Ni  tau(  12) = (  0.3333333  0.6666667  0.0000000  )
        13           Ni  tau(  13) = (  0.6666667  0.1666667  0.1666667  )
        14           Ni  tau(  14) = (  0.6666667  0.0000000  0.0000000  )
        15           Ni  tau(  15) = (  0.6666667  0.5000000  0.1666667  )
        16           Ni  tau(  16) = (  0.6666667  0.3333333  0.0000000  )
        17           Ni  tau(  17) = (  0.6666667  0.8333333  0.1666667  )
        18           Ni  tau(  18) = (  0.6666667  0.6666667  0.0000000  )
        19           Ni  tau(  19) = (  0.0000000  0.1666667  0.5000000  )
        20           Ni  tau(  20) = (  0.0000000  0.0000000  0.3333333  )
        21           Ni  tau(  21) = (  0.0000000  0.5000000  0.5000000  )
        22           Ni  tau(  22) = (  0.0000000  0.3333333  0.3333333  )
        23           Ni  tau(  23) = (  0.0000000  0.8333333  0.5000000  )
        24           Ni  tau(  24) = (  0.0000000  0.6666667  0.3333333  )
        25           Ni  tau(  25) = (  0.3333333  0.1666667  0.5000000  )
        26           Ni  tau(  26) = (  0.3333333  0.0000000  0.3333333  )
        27           Ni  tau(  27) = (  0.3333333  0.5000000  0.5000000  )
        28           Ni  tau(  28) = (  0.3333333  0.3333333  0.3333333  )
        29           Ni  tau(  29) = (  0.3333333  0.8333333  0.5000000  )
        30           Ni  tau(  30) = (  0.3333333  0.6666667  0.3333333  )
        31           Ni  tau(  31) = (  0.6666667  0.1666667  0.5000000  )
        32           Ni  tau(  32) = (  0.6666667  0.0000000  0.3333333  )
        33           Ni  tau(  33) = (  0.6666667  0.5000000  0.5000000  )
        34           Ni  tau(  34) = (  0.6666667  0.3333333  0.3333333  )
        35           Ni  tau(  35) = (  0.6666667  0.8333333  0.5000000  )
        36           Ni  tau(  36) = (  0.6666667  0.6666667  0.3333333  )
        37           Ni  tau(  37) = (  0.0000000  0.1666667  0.8333333  )
        38           Ni  tau(  38) = (  0.0000000  0.0000000  0.6666667  )
        39           Ni  tau(  39) = (  0.0000000  0.5000000  0.8333333  )
        40           Ni  tau(  40) = (  0.0000000  0.3333333  0.6666667  )
        41           Ni  tau(  41) = (  0.0000000  0.8333333  0.8333333  )
        42           Ni  tau(  42) = (  0.0000000  0.6666667  0.6666667  )
        43           Ni  tau(  43) = (  0.3333333  0.1666667  0.8333333  )
        44           Ni  tau(  44) = (  0.3333333  0.0000000  0.6666667  )
        45           Ni  tau(  45) = (  0.3333333  0.5000000  0.8333333  )
        46           Ni  tau(  46) = (  0.3333333  0.3333333  0.6666667  )
        47           Ni  tau(  47) = (  0.3333333  0.8333333  0.8333333  )
        48           Ni  tau(  48) = (  0.3333333  0.6666667  0.6666667  )
        49           Ni  tau(  49) = (  0.6666667  0.1666667  0.8333333  )
        50           Ni  tau(  50) = (  0.6666667  0.0000000  0.6666667  )
        51           Ni  tau(  51) = (  0.6666667  0.5000000  0.8333333  )
        52           Ni  tau(  52) = (  0.6666667  0.3333333  0.6666667  )
        53           Ni  tau(  53) = (  0.6666667  0.8333333  0.8333333  )
        54           Ni  tau(  54) = (  0.6666667  0.6666667  0.6666667  )
        55           C   tau(  55) = (  0.1516270  0.2068290  0.1369430  )
        56           C   tau(  56) = (  0.1817063  0.0401623  0.0297237  )
        57           C   tau(  57) = (  0.1516270  0.2931710  0.3036097  )
        58           C   tau(  58) = (  0.1516270  0.5401623  0.1369430  )
        59           C   tau(  59) = (  0.1817063  0.3734957  0.0297237  )
        60           C   tau(  60) = (  0.1817063  0.4598377  0.1963903  )
        61           C   tau(  61) = (  0.1516270  0.6265043  0.3036097  )
        62           C   tau(  62) = (  0.1516270  0.8734957  0.1369430  )
        63           C   tau(  63) = (  0.1817063  0.7068290  0.0297237  )
        64           C   tau(  64) = (  0.1817063  0.7931710  0.1963903  )
        65           C   tau(  65) = (  0.1516270  0.9598377  0.3036097  )
        66           C   tau(  66) = (  0.4849603  0.2068290  0.1369430  )
        67           C   tau(  67) = (  0.5150397  0.0401623  0.0297237  )
        68           C   tau(  68) = (  0.5150397  0.1265043  0.1963903  )
        69           C   tau(  69) = (  0.4849603  0.2931710  0.3036097  )
        70           C   tau(  70) = (  0.4849603  0.5401623  0.1369430  )
        71           C   tau(  71) = (  0.5150397  0.3734957  0.0297237  )
        72           C   tau(  72) = (  0.5150397  0.4598377  0.1963903  )
        73           C   tau(  73) = (  0.4849603  0.6265043  0.3036097  )
        74           C   tau(  74) = (  0.4849603  0.8734957  0.1369430  )
        75           C   tau(  75) = (  0.5150397  0.7068290  0.0297237  )
        76           C   tau(  76) = (  0.5150397  0.7931710  0.1963903  )
        77           C   tau(  77) = (  0.4849603  0.9598377  0.3036097  )
        78           C   tau(  78) = (  0.8182937  0.2068290  0.1369430  )
        79           C   tau(  79) = (  0.8483730  0.0401623  0.0297237  )
        80           C   tau(  80) = (  0.8483730  0.1265043  0.1963903  )
        81           C   tau(  81) = (  0.8182937  0.2931710  0.3036097  )
        82           C   tau(  82) = (  0.8182937  0.5401623  0.1369430  )
        83           C   tau(  83) = (  0.8483730  0.3734957  0.0297237  )
        84           C   tau(  84) = (  0.8483730  0.4598377  0.1963903  )
        85           C   tau(  85) = (  0.8182937  0.6265043  0.3036097  )
        86           C   tau(  86) = (  0.8182937  0.8734957  0.1369430  )
        87           C   tau(  87) = (  0.8483730  0.7068290  0.0297237  )
        88           C   tau(  88) = (  0.8483730  0.7931710  0.1963903  )
        89           C   tau(  89) = (  0.8182937  0.9598377  0.3036097  )
        90           C   tau(  90) = (  0.1516270  0.2068290  0.4702763  )
        91           C   tau(  91) = (  0.1817063  0.0401623  0.3630570  )
        92           C   tau(  92) = (  0.1817063  0.1265043  0.5297237  )
        93           C   tau(  93) = (  0.1516270  0.2931710  0.6369430  )
        94           C   tau(  94) = (  0.1516270  0.5401623  0.4702763  )
        95           C   tau(  95) = (  0.1817063  0.3734957  0.3630570  )
        96           C   tau(  96) = (  0.1817063  0.4598377  0.5297237  )
        97           C   tau(  97) = (  0.1516270  0.6265043  0.6369430  )
        98           C   tau(  98) = (  0.1516270  0.8734957  0.4702763  )
        99           C   tau(  99) = (  0.1817063  0.7068290  0.3630570  )
       100           C   tau( 100) = (  0.1817063  0.7931710  0.5297237  )
       101           C   tau( 101) = (  0.1516270  0.9598377  0.6369430  )
       102           C   tau( 102) = (  0.4849603  0.2068290  0.4702763  )
       103           C   tau( 103) = (  0.5150397  0.0401623  0.3630570  )
       104           C   tau( 104) = (  0.5150397  0.1265043  0.5297237  )
       105           C   tau( 105) = (  0.4849603  0.2931710  0.6369430  )
       106           C   tau( 106) = (  0.4849603  0.5401623  0.4702763  )
       107           C   tau( 107) = (  0.5150397  0.3734957  0.3630570  )
       108           C   tau( 108) = (  0.5150397  0.4598377  0.5297237  )
       109           C   tau( 109) = (  0.4849603  0.6265043  0.6369430  )
       110           C   tau( 110) = (  0.4849603  0.8734957  0.4702763  )
       111           C   tau( 111) = (  0.5150397  0.7068290  0.3630570  )
       112           C   tau( 112) = (  0.5150397  0.7931710  0.5297237  )
       113           C   tau( 113) = (  0.4849603  0.9598377  0.6369430  )
       114           C   tau( 114) = (  0.8182937  0.2068290  0.4702763  )
       115           C   tau( 115) = (  0.8483730  0.0401623  0.3630570  )
       116           C   tau( 116) = (  0.8483730  0.1265043  0.5297237  )
       117           C   tau( 117) = (  0.8182937  0.2931710  0.6369430  )
       118           C   tau( 118) = (  0.8182937  0.5401623  0.4702763  )
       119           C   tau( 119) = (  0.8483730  0.3734957  0.3630570  )
       120           C   tau( 120) = (  0.8483730  0.4598377  0.5297237  )
       121           C   tau( 121) = (  0.8182937  0.6265043  0.6369430  )
       122           C   tau( 122) = (  0.8182937  0.8734957  0.4702763  )
       123           C   tau( 123) = (  0.8483730  0.7068290  0.3630570  )
       124           C   tau( 124) = (  0.8483730  0.7931710  0.5297237  )
       125           C   tau( 125) = (  0.8182937  0.9598377  0.6369430  )
       126           C   tau( 126) = (  0.1516270  0.2068290  0.8036097  )
       127           C   tau( 127) = (  0.1817063  0.0401623  0.6963903  )
       128           C   tau( 128) = (  0.1817063  0.1265043  0.8630570  )
       129           C   tau( 129) = (  0.1516270  0.2931710  0.9702763  )
       130           C   tau( 130) = (  0.1516270  0.5401623  0.8036097  )
       131           C   tau( 131) = (  0.1817063  0.3734957  0.6963903  )
       132           C   tau( 132) = (  0.1817063  0.4598377  0.8630570  )
       133           C   tau( 133) = (  0.1516270  0.6265043  0.9702763  )
       134           C   tau( 134) = (  0.1516270  0.8734957  0.8036097  )
       135           C   tau( 135) = (  0.1817063  0.7068290  0.6963903  )
       136           C   tau( 136) = (  0.1817063  0.7931710  0.8630570  )
       137           C   tau( 137) = (  0.1516270  0.9598377  0.9702763  )
       138           C   tau( 138) = (  0.4849603  0.2068290  0.8036097  )
       139           C   tau( 139) = (  0.5150397  0.0401623  0.6963903  )
       140           C   tau( 140) = (  0.5150397  0.1265043  0.8630570  )
       141           C   tau( 141) = (  0.4849603  0.2931710  0.9702763  )
       142           C   tau( 142) = (  0.4849603  0.5401623  0.8036097  )
       143           C   tau( 143) = (  0.5150397  0.3734957  0.6963903  )
       144           C   tau( 144) = (  0.5150397  0.4598377  0.8630570  )
       145           C   tau( 145) = (  0.4849603  0.6265043  0.9702763  )
       146           C   tau( 146) = (  0.4849603  0.8734957  0.8036097  )
       147           C   tau( 147) = (  0.5150397  0.7068290  0.6963903  )
       148           C   tau( 148) = (  0.5150397  0.7931710  0.8630570  )
       149           C   tau( 149) = (  0.4849603  0.9598377  0.9702763  )
       150           C   tau( 150) = (  0.8182937  0.2068290  0.8036097  )
       151           C   tau( 151) = (  0.8483730  0.0401623  0.6963903  )
       152           C   tau( 152) = (  0.8483730  0.1265043  0.8630570  )
       153           C   tau( 153) = (  0.8182937  0.2931710  0.9702763  )
       154           C   tau( 154) = (  0.8182937  0.5401623  0.8036097  )
       155           C   tau( 155) = (  0.8483730  0.3734957  0.6963903  )
       156           C   tau( 156) = (  0.8483730  0.4598377  0.8630570  )
       157           C   tau( 157) = (  0.8182937  0.6265043  0.9702763  )
       158           C   tau( 158) = (  0.8182937  0.8734957  0.8036097  )
       159           C   tau( 159) = (  0.8483730  0.7068290  0.6963903  )
       160           C   tau( 160) = (  0.8483730  0.7931710  0.8630570  )
       161           C   tau( 161) = (  0.8182937  0.9598377  0.9702763  )
       162           O   tau( 162) = (  0.2670547  0.0975180  0.2261860  )
       163           O   tau( 163) = (  0.0662787  0.2641847  0.2738140  )
       164           O   tau( 164) = (  0.0662787  0.2358153  0.1071473  )
       165           O   tau( 165) = (  0.2670547  0.0691487  0.0595193  )
       166           O   tau( 166) = (  0.2141430  0.2385587  0.1220930  )
       167           O   tau( 167) = (  0.1191903  0.0718920  0.0445737  )
       168           O   tau( 168) = (  0.1191903  0.0947747  0.2112403  )
       169           O   tau( 169) = (  0.2141430  0.2614413  0.2887597  )
       170           O   tau( 170) = (  0.2670547  0.4308513  0.2261860  )
       171           O   tau( 171) = (  0.0662787  0.5975180  0.2738140  )
       172           O   tau( 172) = (  0.0662787  0.5691487  0.1071473  )
       173           O   tau( 173) = (  0.2670547  0.4024820  0.0595193  )
       174           O   tau( 174) = (  0.2141430  0.5718920  0.1220930  )
       175           O   tau( 175) = (  0.1191903  0.4052253  0.0445737  )
       176           O   tau( 176) = (  0.1191903  0.4281080  0.2112403  )
       177           O   tau( 177) = (  0.2141430  0.5947747  0.2887597  )
       178           O   tau( 178) = (  0.2670547  0.7641847  0.2261860  )
       179           O   tau( 179) = (  0.0662787  0.9308513  0.2738140  )
       180           O   tau( 180) = (  0.0662787  0.9024820  0.1071473  )
       181           O   tau( 181) = (  0.2670547  0.7358153  0.0595193  )
       182           O   tau( 182) = (  0.2141430  0.9052253  0.1220930  )
       183           O   tau( 183) = (  0.1191903  0.7385587  0.0445737  )
       184           O   tau( 184) = (  0.1191903  0.7614413  0.2112403  )
       185           O   tau( 185) = (  0.2141430  0.9281080  0.2887597  )
       186           O   tau( 186) = (  0.6003880  0.0975180  0.2261860  )
       187           O   tau( 187) = (  0.3996120  0.2641847  0.2738140  )
       188           O   tau( 188) = (  0.3996120  0.2358153  0.1071473  )
       189           O   tau( 189) = (  0.6003880  0.0691487  0.0595193  )
       190           O   tau( 190) = (  0.5474763  0.2385587  0.1220930  )
       191           O   tau( 191) = (  0.4525237  0.0718920  0.0445737  )
       192           O   tau( 192) = (  0.4525237  0.0947747  0.2112403  )
       193           O   tau( 193) = (  0.5474763  0.2614413  0.2887597  )
       194           O   tau( 194) = (  0.6003880  0.4308513  0.2261860  )
       195           O   tau( 195) = (  0.3996120  0.5975180  0.2738140  )
       196           O   tau( 196) = (  0.3996120  0.5691487  0.1071473  )
       197           O   tau( 197) = (  0.6003880  0.4024820  0.0595193  )
       198           O   tau( 198) = (  0.5474763  0.5718920  0.1220930  )
       199           O   tau( 199) = (  0.4525237  0.4052253  0.0445737  )
       200           O   tau( 200) = (  0.4525237  0.4281080  0.2112403  )
       201           O   tau( 201) = (  0.5474763  0.5947747  0.2887597  )
       202           O   tau( 202) = (  0.6003880  0.7641847  0.2261860  )
       203           O   tau( 203) = (  0.3996120  0.9308513  0.2738140  )
       204           O   tau( 204) = (  0.3996120  0.9024820  0.1071473  )
       205           O   tau( 205) = (  0.6003880  0.7358153  0.0595193  )
       206           O   tau( 206) = (  0.5474763  0.9052253  0.1220930  )
       207           O   tau( 207) = (  0.4525237  0.7385587  0.0445737  )
       208           O   tau( 208) = (  0.4525237  0.7614413  0.2112403  )
       209           O   tau( 209) = (  0.5474763  0.9281080  0.2887597  )
       210           O   tau( 210) = (  0.9337213  0.0975180  0.2261860  )
       211           O   tau( 211) = (  0.7329453  0.2641847  0.2738140  )
       212           O   tau( 212) = (  0.7329453  0.2358153  0.1071473  )
       213           O   tau( 213) = (  0.9337213  0.0691487  0.0595193  )
       214           O   tau( 214) = (  0.8808097  0.2385587  0.1220930  )
       215           O   tau( 215) = (  0.7858570  0.0718920  0.0445737  )
       216           O   tau( 216) = (  0.7858570  0.0947747  0.2112403  )
       217           O   tau( 217) = (  0.8808097  0.2614413  0.2887597  )
       218           O   tau( 218) = (  0.9337213  0.4308513  0.2261860  )
       219           O   tau( 219) = (  0.7329453  0.5975180  0.2738140  )
       220           O   tau( 220) = (  0.7329453  0.5691487  0.1071473  )
       221           O   tau( 221) = (  0.9337213  0.4024820  0.0595193  )
       222           O   tau( 222) = (  0.8808097  0.5718920  0.1220930  )
       223           O   tau( 223) = (  0.7858570  0.4052253  0.0445737  )
       224           O   tau( 224) = (  0.7858570  0.4281080  0.2112403  )
       225           O   tau( 225) = (  0.8808097  0.5947747  0.2887597  )
       226           O   tau( 226) = (  0.9337213  0.7641847  0.2261860  )
       227           O   tau( 227) = (  0.7329453  0.9308513  0.2738140  )
       228           O   tau( 228) = (  0.7329453  0.9024820  0.1071473  )
       229           O   tau( 229) = (  0.9337213  0.7358153  0.0595193  )
       230           O   tau( 230) = (  0.8808097  0.9052253  0.1220930  )
       231           O   tau( 231) = (  0.7858570  0.7385587  0.0445737  )
       232           O   tau( 232) = (  0.7858570  0.7614413  0.2112403  )
       233           O   tau( 233) = (  0.8808097  0.9281080  0.2887597  )
       234           O   tau( 234) = (  0.2670547  0.0975180  0.5595193  )
       235           O   tau( 235) = (  0.0662787  0.2641847  0.6071473  )
       236           O   tau( 236) = (  0.0662787  0.2358153  0.4404807  )
       237           O   tau( 237) = (  0.2670547  0.0691487  0.3928527  )
       238           O   tau( 238) = (  0.2141430  0.2385587  0.4554263  )
       239           O   tau( 239) = (  0.1191903  0.0718920  0.3779070  )
       240           O   tau( 240) = (  0.1191903  0.0947747  0.5445737  )
       241           O   tau( 241) = (  0.2141430  0.2614413  0.6220930  )
       242           O   tau( 242) = (  0.2670547  0.4308513  0.5595193  )
       243           O   tau( 243) = (  0.0662787  0.5975180  0.6071473  )
       244           O   tau( 244) = (  0.0662787  0.5691487  0.4404807  )
       245           O   tau( 245) = (  0.2670547  0.4024820  0.3928527  )
       246           O   tau( 246) = (  0.2141430  0.5718920  0.4554263  )
       247           O   tau( 247) = (  0.1191903  0.4052253  0.3779070  )
       248           O   tau( 248) = (  0.1191903  0.4281080  0.5445737  )
       249           O   tau( 249) = (  0.2141430  0.5947747  0.6220930  )
       250           O   tau( 250) = (  0.2670547  0.7641847  0.5595193  )
       251           O   tau( 251) = (  0.0662787  0.9308513  0.6071473  )
       252           O   tau( 252) = (  0.0662787  0.9024820  0.4404807  )
       253           O   tau( 253) = (  0.2670547  0.7358153  0.3928527  )
       254           O   tau( 254) = (  0.2141430  0.9052253  0.4554263  )
       255           O   tau( 255) = (  0.1191903  0.7385587  0.3779070  )
       256           O   tau( 256) = (  0.1191903  0.7614413  0.5445737  )
       257           O   tau( 257) = (  0.2141430  0.9281080  0.6220930  )
       258           O   tau( 258) = (  0.6003880  0.0975180  0.5595193  )
       259           O   tau( 259) = (  0.3996120  0.2641847  0.6071473  )
       260           O   tau( 260) = (  0.3996120  0.2358153  0.4404807  )
       261           O   tau( 261) = (  0.6003880  0.0691487  0.3928527  )
       262           O   tau( 262) = (  0.5474763  0.2385587  0.4554263  )
       263           O   tau( 263) = (  0.4525237  0.0718920  0.3779070  )
       264           O   tau( 264) = (  0.4525237  0.0947747  0.5445737  )
       265           O   tau( 265) = (  0.5474763  0.2614413  0.6220930  )
       266           O   tau( 266) = (  0.6003880  0.4308513  0.5595193  )
       267           O   tau( 267) = (  0.3996120  0.5975180  0.6071473  )
       268           O   tau( 268) = (  0.3996120  0.5691487  0.4404807  )
       269           O   tau( 269) = (  0.6003880  0.4024820  0.3928527  )
       270           O   tau( 270) = (  0.5474763  0.5718920  0.4554263  )
       271           O   tau( 271) = (  0.4525237  0.4052253  0.3779070  )
       272           O   tau( 272) = (  0.4525237  0.4281080  0.5445737  )
       273           O   tau( 273) = (  0.5474763  0.5947747  0.6220930  )
       274           O   tau( 274) = (  0.6003880  0.7641847  0.5595193  )
       275           O   tau( 275) = (  0.3996120  0.9308513  0.6071473  )
       276           O   tau( 276) = (  0.3996120  0.9024820  0.4404807  )
       277           O   tau( 277) = (  0.6003880  0.7358153  0.3928527  )
       278           O   tau( 278) = (  0.5474763  0.9052253  0.4554263  )
       279           O   tau( 279) = (  0.4525237  0.7385587  0.3779070  )
       280           O   tau( 280) = (  0.4525237  0.7614413  0.5445737  )
       281           O   tau( 281) = (  0.5474763  0.9281080  0.6220930  )
       282           O   tau( 282) = (  0.9337213  0.0975180  0.5595193  )
       283           O   tau( 283) = (  0.7329453  0.2641847  0.6071473  )
       284           O   tau( 284) = (  0.7329453  0.2358153  0.4404807  )
       285           O   tau( 285) = (  0.9337213  0.0691487  0.3928527  )
       286           O   tau( 286) = (  0.8808097  0.2385587  0.4554263  )
       287           O   tau( 287) = (  0.7858570  0.0718920  0.3779070  )
       288           O   tau( 288) = (  0.7858570  0.0947747  0.5445737  )
       289           O   tau( 289) = (  0.8808097  0.2614413  0.6220930  )
       290           O   tau( 290) = (  0.9337213  0.4308513  0.5595193  )
       291           O   tau( 291) = (  0.7329453  0.5975180  0.6071473  )
       292           O   tau( 292) = (  0.7329453  0.5691487  0.4404807  )
       293           O   tau( 293) = (  0.9337213  0.4024820  0.3928527  )
       294           O   tau( 294) = (  0.8808097  0.5718920  0.4554263  )
       295           O   tau( 295) = (  0.7858570  0.4052253  0.3779070  )
       296           O   tau( 296) = (  0.7858570  0.4281080  0.5445737  )
       297           O   tau( 297) = (  0.8808097  0.5947747  0.6220930  )
       298           O   tau( 298) = (  0.9337213  0.7641847  0.5595193  )
       299           O   tau( 299) = (  0.7329453  0.9308513  0.6071473  )
       300           O   tau( 300) = (  0.7329453  0.9024820  0.4404807  )
       301           O   tau( 301) = (  0.9337213  0.7358153  0.3928527  )
       302           O   tau( 302) = (  0.8808097  0.9052253  0.4554263  )
       303           O   tau( 303) = (  0.7858570  0.7385587  0.3779070  )
       304           O   tau( 304) = (  0.7858570  0.7614413  0.5445737  )
       305           O   tau( 305) = (  0.8808097  0.9281080  0.6220930  )
       306           O   tau( 306) = (  0.2670547  0.0975180  0.8928527  )
       307           O   tau( 307) = (  0.0662787  0.2641847  0.9404807  )
       308           O   tau( 308) = (  0.0662787  0.2358153  0.7738140  )
       309           O   tau( 309) = (  0.2670547  0.0691487  0.7261860  )
       310           O   tau( 310) = (  0.2141430  0.2385587  0.7887597  )
       311           O   tau( 311) = (  0.1191903  0.0718920  0.7112403  )
       312           O   tau( 312) = (  0.1191903  0.0947747  0.8779070  )
       313           O   tau( 313) = (  0.2141430  0.2614413  0.9554263  )
       314           O   tau( 314) = (  0.2670547  0.4308513  0.8928527  )
       315           O   tau( 315) = (  0.0662787  0.5975180  0.9404807  )
       316           O   tau( 316) = (  0.0662787  0.5691487  0.7738140  )
       317           O   tau( 317) = (  0.2670547  0.4024820  0.7261860  )
       318           O   tau( 318) = (  0.2141430  0.5718920  0.7887597  )
       319           O   tau( 319) = (  0.1191903  0.4052253  0.7112403  )
       320           O   tau( 320) = (  0.1191903  0.4281080  0.8779070  )
       321           O   tau( 321) = (  0.2141430  0.5947747  0.9554263  )
       322           O   tau( 322) = (  0.2670547  0.7641847  0.8928527  )
       323           O   tau( 323) = (  0.0662787  0.9308513  0.9404807  )
       324           O   tau( 324) = (  0.0662787  0.9024820  0.7738140  )
       325           O   tau( 325) = (  0.2670547  0.7358153  0.7261860  )
       326           O   tau( 326) = (  0.2141430  0.9052253  0.7887597  )
       327           O   tau( 327) = (  0.1191903  0.7385587  0.7112403  )
       328           O   tau( 328) = (  0.1191903  0.7614413  0.8779070  )
       329           O   tau( 329) = (  0.2141430  0.9281080  0.9554263  )
       330           O   tau( 330) = (  0.6003880  0.0975180  0.8928527  )
       331           O   tau( 331) = (  0.3996120  0.2641847  0.9404807  )
       332           O   tau( 332) = (  0.3996120  0.2358153  0.7738140  )
       333           O   tau( 333) = (  0.6003880  0.0691487  0.7261860  )
       334           O   tau( 334) = (  0.5474763  0.2385587  0.7887597  )
       335           O   tau( 335) = (  0.4525237  0.0718920  0.7112403  )
       336           O   tau( 336) = (  0.4525237  0.0947747  0.8779070  )
       337           O   tau( 337) = (  0.5474763  0.2614413  0.9554263  )
       338           O   tau( 338) = (  0.6003880  0.4308513  0.8928527  )
       339           O   tau( 339) = (  0.3996120  0.5975180  0.9404807  )
       340           O   tau( 340) = (  0.3996120  0.5691487  0.7738140  )
       341           O   tau( 341) = (  0.6003880  0.4024820  0.7261860  )
       342           O   tau( 342) = (  0.5474763  0.5718920  0.7887597  )
       343           O   tau( 343) = (  0.4525237  0.4052253  0.7112403  )
       344           O   tau( 344) = (  0.4525237  0.4281080  0.8779070  )
       345           O   tau( 345) = (  0.5474763  0.5947747  0.9554263  )
       346           O   tau( 346) = (  0.6003880  0.7641847  0.8928527  )
       347           O   tau( 347) = (  0.3996120  0.9308513  0.9404807  )
       348           O   tau( 348) = (  0.3996120  0.9024820  0.7738140  )
       349           O   tau( 349) = (  0.6003880  0.7358153  0.7261860  )
       350           O   tau( 350) = (  0.5474763  0.9052253  0.7887597  )
       351           O   tau( 351) = (  0.4525237  0.7385587  0.7112403  )
       352           O   tau( 352) = (  0.4525237  0.7614413  0.8779070  )
       353           O   tau( 353) = (  0.5474763  0.9281080  0.9554263  )
       354           O   tau( 354) = (  0.9337213  0.0975180  0.8928527  )
       355           O   tau( 355) = (  0.7329453  0.2641847  0.9404807  )
       356           O   tau( 356) = (  0.7329453  0.2358153  0.7738140  )
       357           O   tau( 357) = (  0.9337213  0.0691487  0.7261860  )
       358           O   tau( 358) = (  0.8808097  0.2385587  0.7887597  )
       359           O   tau( 359) = (  0.7858570  0.0718920  0.7112403  )
       360           O   tau( 360) = (  0.7858570  0.0947747  0.8779070  )
       361           O   tau( 361) = (  0.8808097  0.2614413  0.9554263  )
       362           O   tau( 362) = (  0.9337213  0.4308513  0.8928527  )
       363           O   tau( 363) = (  0.7329453  0.5975180  0.9404807  )
       364           O   tau( 364) = (  0.7329453  0.5691487  0.7738140  )
       365           O   tau( 365) = (  0.9337213  0.4024820  0.7261860  )
       366           O   tau( 366) = (  0.8808097  0.5718920  0.7887597  )
       367           O   tau( 367) = (  0.7858570  0.4052253  0.7112403  )
       368           O   tau( 368) = (  0.7858570  0.4281080  0.8779070  )
       369           O   tau( 369) = (  0.8808097  0.5947747  0.9554263  )
       370           O   tau( 370) = (  0.9337213  0.7641847  0.8928527  )
       371           O   tau( 371) = (  0.7329453  0.9308513  0.9404807  )
       372           O   tau( 372) = (  0.7329453  0.9024820  0.7738140  )
       373           O   tau( 373) = (  0.9337213  0.7358153  0.7261860  )
       374           O   tau( 374) = (  0.8808097  0.9052253  0.7887597  )
       375           O   tau( 375) = (  0.7858570  0.7614413  0.8779070  )
       376           O   tau( 376) = (  0.8808097  0.9281080  0.9554263  )

     number of k points=     1  Fermi-Dirac smearing, width (Ry)=  0.0020
                       cart. coord. in units 2pi/alat
        k(    1) = (   0.0000000   0.0000000   0.0000000), wk =   1.0000000

                       cryst. coord.
        k(    1) = (   0.0000000   0.0000000   0.0000000), wk =   1.0000000

     Dense  grid:  1755410 G-vectors     FFT dimensions: ( 200, 192, 225)

     Dynamical RAM for                 wfc:      45.16 MB

     Dynamical RAM for     wfc (w. buffer):      45.16 MB

     Dynamical RAM for           str. fact:       0.67 MB

     Dynamical RAM for           local pot:       0.00 MB

     Dynamical RAM for          nlocal pot:      98.96 MB

     Dynamical RAM for                qrad:       4.82 MB

     Dynamical RAM for          rho,v,vnew:       9.71 MB

     Dynamical RAM for               rhoin:       3.24 MB

     Dynamical RAM for            rho*nmix:      14.28 MB

     Dynamical RAM for           G-vectors:       0.95 MB

     Dynamical RAM for          h,s,v(r/c):       0.59 MB

     Dynamical RAM for          <psi|beta>:      43.82 MB

     Dynamical RAM for      wfcinit/wfcrot:     150.32 MB

     Estimated static dynamical RAM per process >     169.08 MB

     Estimated max dynamical RAM per process >     333.69 MB

     Estimated total dynamical RAM >      76.54 GB

     WARNING: libxc functional with ID  263 depends
      on external parameters: check the user_guide of
      QE if you need to modify them or to check their
      default values.
     Generating pointlists ...
     new r_m :   1.5545 (alat units)  1.5545 (a.u.) for type    1
     new r_m :   0.9835 (alat units)  0.9835 (a.u.) for type    2
     new r_m :   0.9835 (alat units)  0.9835 (a.u.) for type    3

     Initial potential from superposition of free atoms

     starting charge    2689.9824, renormalised to    2690.0000
     Starting wfcs are random

     total cpu time spent up to now is       18.5 secs

     Self-consistent Calculation

     iteration #  1     ecut=   100.00 Ry     beta= 0.50
     ParO style diagonalization

---- Real-time Memory Report at c_bands before calling an iterative solver
           523 MiB given to the printing process from OS
             0 MiB allocation reported by mallinfo(arena+hblkhd)
        166713 MiB available memory on the node where the printing process lives
------------------
     ethr =  1.00E-02,  avg # of iterations = 17.6

     total cpu time spent up to now is      286.1 secs

     total energy              =  -24505.10935834 Ry
     estimated scf accuracy    <40056697.39192114 Ry

     total magnetization       =   284.98 Bohr mag/cell
     absolute magnetization    =   352.51 Bohr mag/cell

     iteration #  2     ecut=   100.00 Ry     beta= 0.50
     ParO style diagonalization

---- Real-time Memory Report at c_bands before calling an iterative solver
           784 MiB given to the printing process from OS
             0 MiB allocation reported by mallinfo(arena+hblkhd)
        153843 MiB available memory on the node where the printing process lives
------------------
     ethr =  1.00E-02,  avg # of iterations =  6.3

     total cpu time spent up to now is      391.1 secs

     total energy              =  -24724.56011172 Ry
     estimated scf accuracy    < 4553995.95441101 Ry

     total magnetization       =   110.00 Bohr mag/cell
     absolute magnetization    =   129.85 Bohr mag/cell

     iteration #  3     ecut=   100.00 Ry     beta= 0.50
     ParO style diagonalization

---- Real-time Memory Report at c_bands before calling an iterative solver
           785 MiB given to the printing process from OS
             0 MiB allocation reported by mallinfo(arena+hblkhd)
        152701 MiB available memory on the node where the printing process lives
------------------
     ethr =  1.00E-02,  avg # of iterations =  3.1

     total cpu time spent up to now is      454.3 secs

     total energy              =  -24734.29085073 Ry
     estimated scf accuracy    <   87533.20431897 Ry

     total magnetization       =   101.77 Bohr mag/cell
     absolute magnetization    =   108.89 Bohr mag/cell

     iteration #  4     ecut=   100.00 Ry     beta= 0.50
     ParO style diagonalization

---- Real-time Memory Report at c_bands before calling an iterative solver
           785 MiB given to the printing process from OS
             0 MiB allocation reported by mallinfo(arena+hblkhd)
        153650 MiB available memory on the node where the printing process lives
------------------
     ethr =  1.00E-02,  avg # of iterations =  2.5

     total cpu time spent up to now is      505.0 secs

     total energy              =  -24747.89138982 Ry
     estimated scf accuracy    <   93053.92062046 Ry

     total magnetization       =   109.99 Bohr mag/cell
     absolute magnetization    =   119.69 Bohr mag/cell

     iteration #  5     ecut=   100.00 Ry     beta= 0.50
     ParO style diagonalization

---- Real-time Memory Report at c_bands before calling an iterative solver
           786 MiB given to the printing process from OS
             0 MiB allocation reported by mallinfo(arena+hblkhd)
        155478 MiB available memory on the node where the printing process lives
------------------
     ethr =  1.00E-02,  avg # of iterations =  2.6

     total cpu time spent up to now is      559.4 secs

     total energy              =  -24749.14540927 Ry
     estimated scf accuracy    <   13403.78443390 Ry

     total magnetization       =   107.80 Bohr mag/cell
     absolute magnetization    =   115.40 Bohr mag/cell

     iteration #  6     ecut=   100.00 Ry     beta= 0.50
     ParO style diagonalization

---- Real-time Memory Report at c_bands before calling an iterative solver
           786 MiB given to the printing process from OS
             0 MiB allocation reported by mallinfo(arena+hblkhd)
        155025 MiB available memory on the node where the printing process lives
------------------
     ethr =  1.00E-02,  avg # of iterations =  2.0

     total cpu time spent up to now is      597.2 secs

     total energy              =  -24748.99103619 Ry
     estimated scf accuracy    <   15051.73615968 Ry

     total magnetization       =   107.86 Bohr mag/cell
     absolute magnetization    =   115.28 Bohr mag/cell

     iteration #  7     ecut=   100.00 Ry     beta= 0.50
     ParO style diagonalization

---- Real-time Memory Report at c_bands before calling an iterative solver
           787 MiB given to the printing process from OS
             0 MiB allocation reported by mallinfo(arena+hblkhd)
        156488 MiB available memory on the node where the printing process lives
------------------
     ethr =  1.00E-02,  avg # of iterations =  2.0

     total cpu time spent up to now is      635.1 secs

     total energy              =  -24748.78392549 Ry
     estimated scf accuracy    <    4033.39330433 Ry

     total magnetization       =   107.97 Bohr mag/cell
     absolute magnetization    =   115.43 Bohr mag/cell

     iteration #  8     ecut=   100.00 Ry     beta= 0.50
     ParO style diagonalization

---- Real-time Memory Report at c_bands before calling an iterative solver
           787 MiB given to the printing process from OS
             0 MiB allocation reported by mallinfo(arena+hblkhd)
        155907 MiB available memory on the node where the printing process lives
------------------
     ethr =  1.00E-02,  avg # of iterations =  2.0

     total cpu time spent up to now is      674.1 secs

     total energy              =  -24748.94713566 Ry
     estimated scf accuracy    <     428.20981832 Ry

     total magnetization       =   108.00 Bohr mag/cell
     absolute magnetization    =   114.37 Bohr mag/cell

     iteration #  9     ecut=   100.00 Ry     beta= 0.50
     ParO style diagonalization

---- Real-time Memory Report at c_bands before calling an iterative solver
           788 MiB given to the printing process from OS
             0 MiB allocation reported by mallinfo(arena+hblkhd)
        157299 MiB available memory on the node where the printing process lives
------------------
     ethr =  1.00E-02,  avg # of iterations =  2.0

     total cpu time spent up to now is      711.6 secs

     total energy              =  -24748.94611623 Ry
     estimated scf accuracy    <     243.81286478 Ry

     total magnetization       =   108.00 Bohr mag/cell
     absolute magnetization    =   114.30 Bohr mag/cell

     iteration # 10     ecut=   100.00 Ry     beta= 0.50
     ParO style diagonalization

---- Real-time Memory Report at c_bands before calling an iterative solver
           788 MiB given to the printing process from OS
             0 MiB allocation reported by mallinfo(arena+hblkhd)
        153117 MiB available memory on the node where the printing process lives
------------------
     ethr =  9.06E-03,  avg # of iterations =  2.0

     total cpu time spent up to now is      749.4 secs

     total energy              =  -24748.93753270 Ry
     estimated scf accuracy    <     407.47084539 Ry

     total magnetization       =   109.83 Bohr mag/cell
     absolute magnetization    =   114.49 Bohr mag/cell

     iteration # 11     ecut=   100.00 Ry     beta= 0.50
     ParO style diagonalization

---- Real-time Memory Report at c_bands before calling an iterative solver
           788 MiB given to the printing process from OS
             0 MiB allocation reported by mallinfo(arena+hblkhd)
        150573 MiB available memory on the node where the printing process lives
------------------
     ethr =  9.06E-03,  avg # of iterations =  2.0

     total cpu time spent up to now is      787.1 secs

     total energy              =  -24748.99152069 Ry
     estimated scf accuracy    <     202.68600042 Ry

     total magnetization       =   109.99 Bohr mag/cell
     absolute magnetization    =   114.56 Bohr mag/cell

     iteration # 12     ecut=   100.00 Ry     beta= 0.50
     ParO style diagonalization

---- Real-time Memory Report at c_bands before calling an iterative solver
           789 MiB given to the printing process from OS
             0 MiB allocation reported by mallinfo(arena+hblkhd)
        158441 MiB available memory on the node where the printing process lives
------------------
     ethr =  7.53E-03,  avg # of iterations =  2.0

     total cpu time spent up to now is      825.1 secs

     total energy              =  -24749.00788392 Ry
     estimated scf accuracy    <     597.50920124 Ry

     total magnetization       =   109.94 Bohr mag/cell
     absolute magnetization    =   114.48 Bohr mag/cell

     iteration # 13     ecut=   100.00 Ry     beta= 0.50
     ParO style diagonalization

---- Real-time Memory Report at c_bands before calling an iterative solver
           789 MiB given to the printing process from OS
             0 MiB allocation reported by mallinfo(arena+hblkhd)
        157593 MiB available memory on the node where the printing process lives
------------------
     ethr =  7.53E-03,  avg # of iterations =  2.0

     total cpu time spent up to now is      862.7 secs

     total energy              =  -24749.03310790 Ry
     estimated scf accuracy    <     743.21039438 Ry

     total magnetization       =   108.00 Bohr mag/cell
     absolute magnetization    =   113.69 Bohr mag/cell

     iteration # 14     ecut=   100.00 Ry     beta= 0.50
     ParO style diagonalization

---- Real-time Memory Report at c_bands before calling an iterative solver
           789 MiB given to the printing process from OS
             0 MiB allocation reported by mallinfo(arena+hblkhd)
        155131 MiB available memory on the node where the printing process lives
------------------
     ethr =  7.53E-03,  avg # of iterations =  2.0

     total cpu time spent up to now is      900.3 secs

     total energy              =  -24748.94725763 Ry
     estimated scf accuracy    <     538.25637732 Ry

     total magnetization       =   108.35 Bohr mag/cell
     absolute magnetization    =   113.67 Bohr mag/cell

     iteration # 15     ecut=   100.00 Ry     beta= 0.50
     ParO style diagonalization

---- Real-time Memory Report at c_bands before calling an iterative solver
           789 MiB given to the printing process from OS
             0 MiB allocation reported by mallinfo(arena+hblkhd)
        151760 MiB available memory on the node where the printing process lives
------------------
     ethr =  7.53E-03,  avg # of iterations =  2.0

     total cpu time spent up to now is      938.9 secs

     total energy              =  -24749.01526356 Ry
     estimated scf accuracy    <     358.10763313 Ry

     total magnetization       =   110.00 Bohr mag/cell
     absolute magnetization    =   114.63 Bohr mag/cell

     iteration # 16     ecut=   100.00 Ry     beta= 0.50
     ParO style diagonalization

---- Real-time Memory Report at c_bands before calling an iterative solver
           789 MiB given to the printing process from OS
             0 MiB allocation reported by mallinfo(arena+hblkhd)
        159817 MiB available memory on the node where the printing process lives
------------------
     ethr =  7.53E-03,  avg # of iterations =  2.0

     negative rho (up,down):  0.000E+00 6.823E-03

     total cpu time spent up to now is      976.7 secs

     total energy              =  -24747.89019733 Ry
     estimated scf accuracy    <     371.46810987 Ry

     total magnetization       =   110.00 Bohr mag/cell
     absolute magnetization    =   114.52 Bohr mag/cell

     iteration # 17     ecut=   100.00 Ry     beta= 0.50
     ParO style diagonalization

---- Real-time Memory Report at c_bands before calling an iterative solver
           789 MiB given to the printing process from OS
             0 MiB allocation reported by mallinfo(arena+hblkhd)
        161449 MiB available memory on the node where the printing process lives
------------------
     ethr =  7.53E-03,  avg # of iterations =  3.3

     negative rho (up,down):  0.000E+00 1.210E-03

     total cpu time spent up to now is     1050.5 secs

     total energy              =  -24748.80205119 Ry
     estimated scf accuracy    <     314.82613774 Ry

     total magnetization       =   110.05 Bohr mag/cell
     absolute magnetization    =   114.99 Bohr mag/cell

     iteration # 18     ecut=   100.00 Ry     beta= 0.50
     ParO style diagonalization

---- Real-time Memory Report at c_bands before calling an iterative solver
           789 MiB given to the printing process from OS
             0 MiB allocation reported by mallinfo(arena+hblkhd)
        157739 MiB available memory on the node where the printing process lives
------------------
     ethr =  7.53E-03,  avg # of iterations =  2.4

     total cpu time spent up to now is     1102.1 secs

     total energy              =  -24748.89530907 Ry
     estimated scf accuracy    <     133.61090099 Ry

     total magnetization       =   110.01 Bohr mag/cell
     absolute magnetization    =   114.86 Bohr mag/cell

     iteration # 19     ecut=   100.00 Ry     beta= 0.50
     ParO style diagonalization

---- Real-time Memory Report at c_bands before calling an iterative solver
           789 MiB given to the printing process from OS
             0 MiB allocation reported by mallinfo(arena+hblkhd)
        157449 MiB available memory on the node where the printing process lives
------------------
     ethr =  4.97E-03,  avg # of iterations =  2.4

     total cpu time spent up to now is     1153.4 secs

     total energy              =  -24749.00396179 Ry
     estimated scf accuracy    <      29.57887248 Ry

     total magnetization       =   110.00 Bohr mag/cell
     absolute magnetization    =   114.71 Bohr mag/cell

     iteration # 20     ecut=   100.00 Ry     beta= 0.50
     ParO style diagonalization

---- Real-time Memory Report at c_bands before calling an iterative solver
           789 MiB given to the printing process from OS
             0 MiB allocation reported by mallinfo(arena+hblkhd)
        134390 MiB available memory on the node where the printing process lives
------------------
     ethr =  1.10E-03,  avg # of iterations =  2.0

     total cpu time spent up to now is     1191.3 secs

     total energy              =  -24749.04292893 Ry
     estimated scf accuracy    <      87.41252333 Ry

     total magnetization       =   110.00 Bohr mag/cell
     absolute magnetization    =   114.76 Bohr mag/cell

     iteration # 21     ecut=   100.00 Ry     beta= 0.50
     ParO style diagonalization

---- Real-time Memory Report at c_bands before calling an iterative solver
           789 MiB given to the printing process from OS
             0 MiB allocation reported by mallinfo(arena+hblkhd)
        149698 MiB available memory on the node where the printing process lives
------------------
[...]
     atom  168 type  3   force =     0.01217379    0.01166465    0.00398978
     atom  169 type  3   force =    -0.00764890   -0.00424711    0.02846921
     atom  170 type  3   force =    -0.00765823   -0.00865037    0.01589295
     atom  171 type  3   force =    -0.00657834    0.00561948    0.00448510
     atom  172 type  3   force =    -0.01031211    0.00416376    0.00105835
     atom  173 type  3   force =    -0.00540561   -0.01326128    0.00315919
     atom  174 type  3   force =    -0.00708800   -0.00624533    0.00769291
     atom  175 type  3   force =    -0.00367295    0.00400694   -0.00695018
     atom  176 type  3   force =    -0.01267546    0.00538002    0.00893771
     atom  177 type  3   force =    -0.01213132   -0.00522657    0.00967890
     atom  178 type  3   force =    -0.00852480   -0.00700275    0.00435531
     atom  179 type  3   force =     0.00557091    0.00204281    0.00771430
     atom  180 type  3   force =     0.00747457   -0.00410613   -0.00000570
     atom  181 type  3   force =    -0.00760252   -0.00425193    0.00367022
     atom  182 type  3   force =     0.00952386   -0.00716923    0.00468906
     atom  183 type  3   force =    -0.00327187    0.00075448   -0.00381426
     atom  184 type  3   force =    -0.01086661   -0.00027962   -0.00018668
     atom  185 type  3   force =     0.00265099   -0.00762709    0.01141730
     atom  186 type  3   force =     0.00329008   -0.00160362    0.00699587
     atom  187 type  3   force =    -0.00376243   -0.00570344    0.01225173
     atom  188 type  3   force =     0.00918051   -0.00246133    0.00400024
     atom  189 type  3   force =     0.00452487    0.00065471    0.00557754
     atom  190 type  3   force =     0.00908061   -0.00167325    0.00936917
     atom  191 type  3   force =     0.01047380    0.00771077   -0.00020306
     atom  192 type  3   force =     0.00199482   -0.00803989   -0.00167674
     atom  193 type  3   force =    -0.00252201   -0.00553459    0.01033033
     atom  194 type  3   force =    -0.00181572   -0.00515464    0.00982287
     atom  195 type  3   force =    -0.00751680    0.00247292    0.00411699
     atom  196 type  3   force =    -0.00665678    0.00299426    0.00189521
     atom  197 type  3   force =    -0.00011812   -0.00243065    0.00559818
     atom  198 type  3   force =     0.00079616   -0.00319249    0.00887515
     atom  199 type  3   force =     0.00420272    0.00136054   -0.00095273
     atom  200 type  3   force =    -0.00673736   -0.00132250    0.00567798
     atom  201 type  3   force =    -0.00934124   -0.00567631    0.01141090
     atom  202 type  3   force =    -0.00385106   -0.00225720    0.00756633
     atom  203 type  3   force =     0.00830881    0.00277797    0.00203833
     atom  204 type  3   force =     0.00070899    0.00899698    0.00136508
     atom  205 type  3   force =    -0.00170496   -0.00170062    0.00626264
     atom  206 type  3   force =     0.00527345    0.00134713    0.00859765
     atom  207 type  3   force =     0.00059500    0.00738405   -0.00071399
     atom  208 type  3   force =    -0.01099667    0.00543485   -0.00009840
     atom  209 type  3   force =    -0.00364530   -0.00168985    0.00683690
     atom  210 type  3   force =     0.00614727    0.00180385    0.01533099
     atom  211 type  3   force =    -0.00001316    0.00869563    0.00435341
     atom  212 type  3   force =     0.00241696    0.01224066    0.00283236
     atom  213 type  3   force =     0.01397895   -0.00646444   -0.00202713
     atom  214 type  3   force =     0.00295647    0.00665518    0.00862035
     atom  215 type  3   force =     0.01080221    0.01023700   -0.00246473
     atom  216 type  3   force =    -0.00120212    0.00990662    0.00297693
     atom  217 type  3   force =    -0.00519515   -0.00035692    0.01261142
     atom  218 type  3   force =    -0.00427406   -0.00097258    0.01187868
     atom  219 type  3   force =    -0.00396375    0.00738978    0.00616755
     atom  220 type  3   force =    -0.00308746    0.00801955    0.00296597
     atom  221 type  3   force =    -0.00532332   -0.00167686    0.00211080
     atom  222 type  3   force =    -0.00096824   -0.00214580    0.00908549
     atom  223 type  3   force =     0.00161987    0.00892727   -0.00161699
     atom  224 type  3   force =    -0.00719500    0.00753941    0.00411316
     atom  225 type  3   force =    -0.00833745   -0.00120323    0.01132547
     atom  226 type  3   force =    -0.00282614   -0.00565021    0.00792469
     atom  227 type  3   force =     0.00089357    0.00925819    0.00308358
     atom  228 type  3   force =     0.00297290    0.00868004    0.00305516
     atom  229 type  3   force =    -0.00309086   -0.00935158    0.00435745
     atom  230 type  3   force =     0.01057143   -0.00435702    0.00950107
     atom  231 type  3   force =     0.00320549    0.00390015   -0.00037775
     atom  232 type  3   force =    -0.00645777    0.00619410    0.00237922
     atom  233 type  3   force =    -0.00249205   -0.00253830    0.01021649
     atom  234 type  3   force =     0.00061932   -0.00593740   -0.00381695
     atom  235 type  3   force =    -0.00161524    0.00573146   -0.00624911
     atom  236 type  3   force =     0.00257550    0.00425585    0.00172942
     atom  237 type  3   force =     0.00554430   -0.00478081    0.01132914
     atom  238 type  3   force =     0.00908040   -0.00571699    0.00625882
     atom  239 type  3   force =     0.00898306    0.00029489    0.00420185
     atom  240 type  3   force =    -0.00302504    0.00289296   -0.00639650
     atom  241 type  3   force =    -0.00395424   -0.00363264   -0.00095418
     atom  242 type  3   force =    -0.00057038   -0.00393518   -0.00045812
     atom  243 type  3   force =    -0.00624530    0.01718280   -0.00203321
     atom  244 type  3   force =    -0.00137187    0.00868479    0.00175122
     atom  245 type  3   force =     0.00171986   -0.00631321    0.00936549
     atom  246 type  3   force =     0.00330069   -0.00281373    0.00520547
     atom  247 type  3   force =     0.00440694    0.00518203    0.00394828
     atom  248 type  3   force =    -0.00704738    0.00712498   -0.00482748
     atom  249 type  3   force =    -0.00730508    0.00196272    0.00079085
     atom  250 type  3   force =    -0.00260111   -0.00280505   -0.00169376
     atom  251 type  3   force =     0.00354714    0.00831243   -0.00350237
     atom  252 type  3   force =     0.00101417    0.00462078   -0.00074867
     atom  253 type  3   force =    -0.00419155   -0.00676464    0.00169418
     atom  254 type  3   force =     0.00275149   -0.00571417    0.00132419
     atom  255 type  3   force =     0.00166711    0.00373025   -0.00163693
     atom  256 type  3   force =    -0.00511070    0.00922660   -0.00383465
     atom  257 type  3   force =    -0.00429555   -0.00136851   -0.00008877
     atom  258 type  3   force =     0.00063237   -0.00471798   -0.00567173
     atom  259 type  3   force =     0.00120867    0.00522409   -0.00865299
     atom  260 type  3   force =     0.00449736    0.00488620    0.00092009
     atom  261 type  3   force =     0.00455227   -0.00467340    0.00319641
     atom  262 type  3   force =     0.00680524   -0.00415077    0.00399521
     atom  263 type  3   force =     0.01248659   -0.00072435    0.01097096
     atom  264 type  3   force =    -0.00384443    0.00459426   -0.01172125
     atom  265 type  3   force =    -0.00428052   -0.00390210   -0.00446036
     atom  266 type  3   force =    -0.00662489   -0.01033469   -0.00060302
     atom  267 type  3   force =    -0.00188530    0.00223979   -0.00595392
     atom  268 type  3   force =    -0.00154718    0.00142048    0.00077539
     atom  269 type  3   force =    -0.00089780   -0.00696669    0.00809530
     atom  270 type  3   force =     0.00156537   -0.01080055    0.01104645
     atom  271 type  3   force =     0.00540311    0.00050532    0.00320166
     atom  272 type  3   force =    -0.00574252    0.00123889   -0.00645238
     atom  273 type  3   force =    -0.01125509   -0.01699945    0.00159643
     atom  274 type  3   force =     0.00693991   -0.01819424    0.00710384
     atom  275 type  3   force =    -0.00214440    0.00584206   -0.01007132
     atom  276 type  3   force =    -0.00178383    0.00382156   -0.00684771
     atom  277 type  3   force =    -0.00051765   -0.00739535    0.00888663
     atom  278 type  3   force =     0.00642454   -0.00468372    0.00114334
     atom  279 type  3   force =     0.00056540    0.00147684   -0.00201952
     atom  280 type  3   force =    -0.00562949   -0.00150744   -0.00805805
     atom  281 type  3   force =    -0.00402678   -0.00588134   -0.00534380
     atom  282 type  3   force =     0.00218984   -0.00471627   -0.00047362
     atom  283 type  3   force =    -0.00285217    0.00436694   -0.00986841
     atom  284 type  3   force =     0.00094257    0.00680540   -0.00138170
     atom  285 type  3   force =     0.00402257   -0.00458575    0.00660175
     atom  286 type  3   force =     0.00460723   -0.00233333    0.00556910
     atom  287 type  3   force =     0.00825638    0.00714610   -0.00096808
     atom  288 type  3   force =    -0.00218005    0.00445254   -0.00846337
     atom  289 type  3   force =    -0.00786450   -0.00445041   -0.00313074
     atom  290 type  3   force =    -0.00981097   -0.00018096    0.00167114
     atom  291 type  3   force =    -0.01960845   -0.00609108    0.00710259
     atom  292 type  3   force =    -0.00366985    0.00481738    0.01037303
     atom  293 type  3   force =    -0.00127206   -0.00218281    0.00823590
     atom  294 type  3   force =     0.00127174    0.00233251    0.01350159
     atom  295 type  3   force =     0.00198212    0.00625586    0.00328525
     atom  296 type  3   force =    -0.01625517    0.00284546   -0.00340137
     atom  297 type  3   force =    -0.02152917    0.00476732    0.00735657
     atom  298 type  3   force =     0.00665781    0.00535333    0.01021162
     atom  299 type  3   force =     0.01013631   -0.00000173   -0.00658743
     atom  300 type  3   force =     0.00530661    0.00666373    0.00067320
     atom  301 type  3   force =     0.00044017   -0.00154077    0.00799055
     atom  302 type  3   force =     0.00940849   -0.00089378    0.00726713
     atom  303 type  3   force =     0.00531038    0.00712293    0.00479924
     atom  304 type  3   force =     0.00537821    0.00505510    0.01265533
     atom  305 type  3   force =     0.00786792   -0.00335468    0.00247372
     atom  306 type  3   force =     0.00721988   -0.00490969    0.00195521
     atom  307 type  3   force =     0.00184128    0.00290613   -0.01199431
     atom  308 type  3   force =     0.00296331    0.00247740   -0.01152227
     atom  309 type  3   force =     0.00347895   -0.00339585   -0.00195215
     atom  310 type  3   force =     0.00770136   -0.00531410   -0.00261281
     atom  311 type  3   force =     0.00989247    0.00424338   -0.00736590
     atom  312 type  3   force =     0.00679348    0.00019238   -0.00559923
     atom  313 type  3   force =     0.00128705   -0.01191268   -0.00182372
     atom  314 type  3   force =    -0.00540230   -0.00754752   -0.00476150
     atom  315 type  3   force =    -0.01304680    0.00443202   -0.01257318
     atom  316 type  3   force =    -0.01273266    0.01279638   -0.01776506
     atom  317 type  3   force =    -0.00047966   -0.00330626   -0.00396617
     atom  318 type  3   force =    -0.00105373    0.00190138   -0.00400403
     atom  319 type  3   force =     0.00005462    0.00645712   -0.01216481
     atom  320 type  3   force =    -0.01372223    0.00227803   -0.01615510
     atom  321 type  3   force =    -0.01539817   -0.00390444   -0.00176680
     atom  322 type  3   force =    -0.00401621    0.00057217   -0.00081942
     atom  323 type  3   force =     0.00612627   -0.00066994   -0.00251270
     atom  324 type  3   force =     0.01065286    0.00909006   -0.00491015
     atom  325 type  3   force =     0.00007060    0.00209673   -0.00186247
     atom  326 type  3   force =     0.00806611    0.00129640    0.00202435
     atom  327 type  3   force =     0.00745939    0.01751388   -0.00901019
     atom  328 type  3   force =    -0.00811605    0.00935063   -0.01411876
     atom  329 type  3   force =    -0.00216526   -0.00202450    0.00563581
     atom  330 type  3   force =     0.00184814   -0.00063391   -0.00067714
     atom  331 type  3   force =     0.00270689    0.00397783   -0.00301786
     atom  332 type  3   force =     0.00238896    0.00680229   -0.00752911
     atom  333 type  3   force =     0.00192294   -0.00398790   -0.00610995
     atom  334 type  3   force =     0.00601198   -0.00113345   -0.00309864
     atom  335 type  3   force =     0.00574730    0.00617672   -0.01060646
     atom  336 type  3   force =    -0.00203038    0.00752792   -0.00538717
     atom  337 type  3   force =    -0.00296920   -0.00033865    0.00313161
     atom  338 type  3   force =    -0.00284455   -0.00236916   -0.00191350
     atom  339 type  3   force =    -0.00551779    0.00718387   -0.00349324
     atom  340 type  3   force =    -0.00094237    0.00806306   -0.00661072
     atom  341 type  3   force =    -0.00194711   -0.00642061   -0.00652784
     atom  342 type  3   force =     0.00330913   -0.00535223   -0.00240807
     atom  343 type  3   force =     0.00497269    0.00471267   -0.01004574
     atom  344 type  3   force =    -0.00629354    0.00555142   -0.00732806
     atom  345 type  3   force =    -0.00800158   -0.00137607    0.00399926
     atom  346 type  3   force =    -0.00126321   -0.00342104    0.00131696
     atom  347 type  3   force =    -0.00006344    0.01057313   -0.00030454
     atom  348 type  3   force =     0.00064294    0.00950305   -0.00522901
     atom  349 type  3   force =     0.00667486   -0.01750275   -0.00814209
     atom  350 type  3   force =     0.00521793   -0.00191309   -0.00033586
     atom  351 type  3   force =     0.00544127    0.00412711   -0.00918653
     atom  352 type  3   force =    -0.00664339    0.00857629   -0.00465014
     atom  353 type  3   force =    -0.00431960    0.00102244    0.00543105
     atom  354 type  3   force =     0.00959770   -0.00977196   -0.00328191
     atom  355 type  3   force =    -0.00022148    0.01003818   -0.00612115
     atom  356 type  3   force =     0.00100860    0.00571248   -0.01227317
     atom  357 type  3   force =     0.00798470   -0.00809994   -0.00373411
     atom  358 type  3   force =     0.00569323   -0.00509784   -0.00739021
     atom  359 type  3   force =     0.00946363    0.00163784   -0.01203417
     atom  360 type  3   force =    -0.00012496    0.00408459   -0.00990628
     atom  361 type  3   force =    -0.00596995   -0.00177322   -0.00303118
     atom  362 type  3   force =    -0.00951834   -0.00518813   -0.00909563
     atom  363 type  3   force =    -0.00489052    0.00451955   -0.00511763
     atom  364 type  3   force =    -0.01247137   -0.00771239   -0.01941475
     atom  365 type  3   force =    -0.01006240   -0.00552090   -0.01089741
     atom  366 type  3   force =    -0.01637881   -0.00691723   -0.01970969
     atom  367 type  3   force =    -0.00510153    0.00058463   -0.01535051
     atom  368 type  3   force =    -0.01152682    0.00334213   -0.01312774
     atom  369 type  3   force =    -0.01310598   -0.00744347   -0.00337220
     atom  370 type  3   force =     0.00046306   -0.01307751   -0.01466446
     atom  371 type  3   force =     0.00231035    0.00583299   -0.00235073
     atom  372 type  3   force =     0.00861145   -0.00304109   -0.00899530
     atom  373 type  3   force =     0.00916019    0.00928910   -0.01214928
     atom  374 type  3   force =     0.02187158   -0.01243468   -0.00394223
     atom  375 type  3   force =    -0.00281196   -0.00624451   -0.01306335
     atom  376 type  3   force =     0.00151218   -0.01094210    0.00271992

     Total force =     0.551449     Total SCF correction =     0.322073
     SCF correction compared to forces is large: reduce conv_thr to get better values

     Writing all to output data dir ./calc.save/
     Writing meta-gga kinetic term

     init_run     :     17.67s CPU     18.20s WALL (       1 calls)
     electrons    :   1427.59s CPU   1442.36s WALL (       1 calls)
     forces       :      7.05s CPU      7.12s WALL (       1 calls)

     Called by init_run:
     wfcinit      :     12.20s CPU     12.40s WALL (       1 calls)
     wfcinit:wfcr :     11.87s CPU     12.02s WALL (       1 calls)
     potinit      :      2.09s CPU      2.11s WALL (       1 calls)
     hinit0       :      2.80s CPU      2.95s WALL (       1 calls)

     Called by electrons:
     c_bands      :   1280.60s CPU   1293.24s WALL (      27 calls)
     sum_band     :    139.61s CPU    140.77s WALL (      27 calls)
     v_of_rho     :      5.67s CPU      6.00s WALL (      28 calls)
     v_h          :      0.11s CPU      0.12s WALL (      28 calls)
     v_xc_meta    :      5.56s CPU      5.85s WALL (      28 calls)
     mix_rho      :      1.19s CPU      1.29s WALL (      27 calls)

     Called by c_bands:
     init_us_2    :      2.16s CPU      2.23s WALL (      55 calls)
     init_us_2:cp :      2.16s CPU      2.21s WALL (      55 calls)
     paro_gamma   :   1184.18s CPU   1196.35s WALL (      27 calls)

     Called by sum_band:
     sum_band:wei :      0.08s CPU      0.14s WALL (      27 calls)
     sum_band:loo :    133.91s CPU    134.95s WALL (      27 calls)
     sum_band:buf :      0.00s CPU      0.00s WALL (      27 calls)
     sum_band:ini :      1.06s CPU      1.10s WALL (      27 calls)

     Called by paro_*:
     paro:init    :    274.18s CPU    276.87s WALL (      27 calls)
     paro:pack    :      7.18s CPU      7.22s WALL (      69 calls)
     paro:mp_bar  :      0.00s CPU      0.00s WALL (      69 calls)
     paro:mp_sum  :      5.32s CPU      5.35s WALL (      69 calls)
     pcg          :    648.41s CPU    655.29s WALL (      69 calls)
     pcg:hs_1psi  :    533.10s CPU    538.35s WALL (    1276 calls)
     pcg:ortho    :     92.14s CPU     93.26s WALL (    2458 calls)
     pcg:move     :      4.78s CPU      4.93s WALL (   54383 calls)
     rotHSw       :    248.47s CPU    250.99s WALL (      96 calls)
     rotHSw:hc    :     85.49s CPU     86.78s WALL (      96 calls)
     rotHSw:diag  :     47.22s CPU     47.84s WALL (      96 calls)
     rotHSw:evc   :    115.76s CPU    116.34s WALL (      96 calls)
     rotHSw:hc:co :     72.28s CPU     72.74s WALL (   10560 calls)
     rotHSw:hc:rs :     12.62s CPU     13.47s WALL (   10560 calls)
     rotHSw:hc:sy :      0.02s CPU      0.03s WALL (     192 calls)
     rotHSw:ev:bc :      6.56s CPU      6.68s WALL (      96 calls)
     rotHSw:ev:co :     98.31s CPU     98.70s WALL (     192 calls)
     rotHSw:ev:su :      0.00s CPU      0.00s WALL (     192 calls)
     h_psi        :    815.39s CPU    823.33s WALL (    1304 calls)
     g_psi        :      1.12s CPU      1.20s WALL (  130720 calls)

     Called by h_psi:
     h_psi:calbec :     83.71s CPU     84.64s WALL (    1304 calls)
     vloc_psi     :    163.99s CPU    165.53s WALL (    1304 calls)
     add_vuspsi   :     66.60s CPU     66.87s WALL (    1304 calls)
     h_psi_meta   :    499.24s CPU    504.33s WALL (    1304 calls)

     General routines
     calbec       :     86.56s CPU     87.51s WALL (    1308 calls)
     fft          :      2.02s CPU      2.17s WALL (     525 calls)
     ffts         :      0.29s CPU      0.29s WALL (     108 calls)
     fftw         :    706.30s CPU    713.00s WALL (  579464 calls)
     interpolate  :      0.02s CPU      0.02s WALL (      56 calls)

     Parallel routines

     PWSCF        :  24m20.15s CPU  25m 9.59s WALL


   This run was terminated on:  14:31:54   6Apr2023            

=------------------------------------------------------------------------------=
   JOB DONE.
=------------------------------------------------------------------------------=
