
     Program PWSCF v.7.0 starts on  3Dec2022 at 18:29:58 

     This program is part of the open-source Quantum ESPRESSO suite
     for quantum simulation of materials; please cite
         "P. Giannozzi et al., J. Phys.:Condens. Matter 21 395502 (2009);
         "P. Giannozzi et al., J. Phys.:Condens. Matter 29 465901 (2017);
         "P. Giannozzi et al., J. Chem. Phys. 152 154105 (2020);
          URL http://www.quantum-espresso.org", 
     in publications or presentations arising from this work. More details at
     http://www.quantum-espresso.org/quote

     Parallel version (MPI), running on    24 processors

     MPI processes distributed on     1 nodes
     R & G space division:  proc/nbgrp/npool/nimage =      24
     358351 MiB available memory on the printing compute node when the environment starts

     Reading input from pw.inp
Warning: card &CELL ignored
Warning: card / ignored

     Current dimensions of program PWSCF are:
     Max number of different atomic species (ntypx) = 10
     Max number of k-points (npk) =  40000
     Max angular momentum in pseudopotentials (lmaxx) =  4
     Message from routine cell_base_init:
     DEPRECATED: use true lattice parameter, not A to a.u. conversion factor

     IMPORTANT: XC functional enforced from input :
     Exchange-correlation= PBE
                           (   1   4   3   4   0   0   0)
     Any further DFT definition will be discarded
     Please, verify this is what you really want


     Subspace diagonalization in iterative solution of the eigenvalue problem:
     one sub-group per band group will be used
     scalapack distributed-memory algorithm (size of sub-group:  4*  4 procs)


     Parallelization info
     --------------------
     sticks:   dense  smooth     PW     G-vecs:    dense   smooth      PW
     Min        1237    1237    336                34545    34545    4895
     Max        1239    1239    338                34546    34546    4896
     Sum       29715   29715   8083               829091   829091  117491

     Using Slab Decomposition



     bravais-lattice index     =            0
     lattice parameter (alat)  =       1.0000  a.u.
     unit-cell volume          =    2170.5063 (a.u.)^3
     number of atoms/cell      =           24
     number of atomic types    =            1
     number of electrons       =        96.00
     number of Kohn-Sham states=           62
     kinetic-energy cutoff     =     200.0000  Ry
     charge density cutoff     =     800.0000  Ry
     scf convergence threshold =      1.0E-06
     mixing beta               =       0.7000
     number of iterations used =            8  plain     mixing
     Exchange-correlation= PBE
                           (   1   4   3   4   0   0   0)

     celldm(1)=   1.000000  celldm(2)=   0.000000  celldm(3)=   0.000000
     celldm(4)=   0.000000  celldm(5)=   0.000000  celldm(6)=   0.000000

     crystal axes: (cart. coord. in units of alat)
               a(1) = (  29.187375   0.000000   0.000000 )  
               a(2) = (   0.000000  16.000000   0.000000 )  
               a(3) = (   0.000000   0.000000   4.647785 )  

     reciprocal axes: (cart. coord. in units 2 pi/alat)
               b(1) = (  0.034261  0.000000  0.000000 )  
               b(2) = (  0.000000  0.062500  0.000000 )  
               b(3) = (  0.000000  0.000000  0.215156 )  


     PseudoPot. # 1 for C  read from file:
     .././06_C_4_1.2_1.2_pbe_n_v1.0.upf
     MD5 check sum: 7e0e17a2517474b8bea671dc4b65026c
     Pseudo is Norm-conserving + core correction, Zval =  4.0
     Generated using ONCVPSP code by D. R. Hamann
     Using radial grid of 1246 points,  4 beta functions with: 
                l(1) =   0
                l(2) =   0
                l(3) =   1
                l(4) =   1

     atomic species   valence    mass     pseudopotential
        C              4.00    12.00000     C ( 1.00)

     No symmetry found


                                    s                        frac. trans.

      isym =  1     identity                                     

 cryst.   s( 1) = (     1          0          0      )
                  (     0          1          0      )
                  (     0          0          1      )

 cart.    s( 1) = (  1.0000000  0.0000000  0.0000000 )
                  (  0.0000000  1.0000000  0.0000000 )
                  (  0.0000000  0.0000000  1.0000000 )


   Cartesian axes

     site n.     atom                  positions (alat units)
         1           C   tau(   1) = (  11.8436874   8.0000000   0.0000000  )
         2           C   tau(   2) = (  10.9444353  10.4706746   0.0000000  )
         3           C   tau(   3) = (   6.0781563  11.3287309   0.0000000  )
         4           C   tau(   4) = (   4.3881153   9.3146185   0.0000000  )
         5           C   tau(   5) = (   6.0781563   4.6712691   0.0000000  )
         6           C   tau(   6) = (   8.6674493   4.2147069   0.0000000  )
         7           C   tau(   7) = (   9.9218437  11.3287309   2.3238926  )
         8           C   tau(   8) = (   7.3325507  11.7852931   2.3238926  )
         9           C   tau(   9) = (   4.1563126   8.0000000   2.3238926  )
        10           C   tau(  10) = (   5.0555647   5.5293254   2.3238926  )
        11           C   tau(  11) = (   9.9218437   4.6712691   2.3238926  )
        12           C   tau(  12) = (  11.6118847   6.6853815   2.3238926  )
        13           C   tau(  13) = (  25.0310621   8.0000000   0.0000000  )
        14           C   tau(  14) = (  24.1318101  10.4706746   0.0000000  )
        15           C   tau(  15) = (  19.2655311  11.3287309   0.0000000  )
        16           C   tau(  16) = (  17.5754901   9.3146185   0.0000000  )
        17           C   tau(  17) = (  19.2655311   4.6712691   0.0000000  )
        18           C   tau(  18) = (  21.8548240   4.2147069   0.0000000  )
        19           C   tau(  19) = (  23.1092184  11.3287309   2.3238926  )
        20           C   tau(  20) = (  20.5199254  11.7852931   2.3238926  )
        21           C   tau(  21) = (  17.3436874   8.0000000   2.3238926  )
        22           C   tau(  22) = (  18.2429394   5.5293254   2.3238926  )
        23           C   tau(  23) = (  23.1092184   4.6712691   2.3238926  )
        24           C   tau(  24) = (  24.7992594   6.6853815   2.3238926  )

   Crystallographic axes

     site n.     atom                  positions (cryst. coord.)
         1           C   tau(   1) = (  0.4057812  0.5000000  0.0000000  )
         2           C   tau(   2) = (  0.3749716  0.6544172  0.0000000  )
         3           C   tau(   3) = (  0.2082461  0.7080457  0.0000000  )
         4           C   tau(   4) = (  0.1503429  0.5821637  0.0000000  )
         5           C   tau(   5) = (  0.2082461  0.2919543  0.0000000  )
         6           C   tau(   6) = (  0.2969589  0.2634192  0.0000000  )
         7           C   tau(   7) = (  0.3399361  0.7080457  0.5000000  )
         8           C   tau(   8) = (  0.2512234  0.7365808  0.5000000  )
         9           C   tau(   9) = (  0.1424010  0.5000000  0.5000000  )
        10           C   tau(  10) = (  0.1732107  0.3455828  0.5000000  )
        11           C   tau(  11) = (  0.3399361  0.2919543  0.5000000  )
        12           C   tau(  12) = (  0.3978393  0.4178363  0.5000000  )
        13           C   tau(  13) = (  0.8575990  0.5000000  0.0000000  )
        14           C   tau(  14) = (  0.8267893  0.6544172  0.0000000  )
        15           C   tau(  15) = (  0.6600639  0.7080457  0.0000000  )
        16           C   tau(  16) = (  0.6021607  0.5821637  0.0000000  )
        17           C   tau(  17) = (  0.6600639  0.2919543  0.0000000  )
        18           C   tau(  18) = (  0.7487766  0.2634192  0.0000000  )
        19           C   tau(  19) = (  0.7917539  0.7080457  0.5000000  )
        20           C   tau(  20) = (  0.7030411  0.7365808  0.5000000  )
        21           C   tau(  21) = (  0.5942188  0.5000000  0.5000000  )
        22           C   tau(  22) = (  0.6250284  0.3455828  0.5000000  )
        23           C   tau(  23) = (  0.7917539  0.2919543  0.5000000  )
        24           C   tau(  24) = (  0.8496571  0.4178363  0.5000000  )

     number of k points=     5  Fermi-Dirac smearing, width (Ry)=  0.0020
                       cart. coord. in units 2pi/alat
        k(    1) = (   0.0000000   0.0000000   0.0107578), wk =   0.4000000
        k(    2) = (   0.0000000   0.0000000   0.0322734), wk =   0.4000000
        k(    3) = (   0.0000000   0.0000000   0.0537891), wk =   0.4000000
        k(    4) = (   0.0000000   0.0000000   0.0753047), wk =   0.4000000
        k(    5) = (   0.0000000   0.0000000   0.0968203), wk =   0.4000000

                       cryst. coord.
        k(    1) = (   0.0000000   0.0000000   0.0500000), wk =   0.4000000
        k(    2) = (   0.0000000   0.0000000   0.1500000), wk =   0.4000000
        k(    3) = (   0.0000000   0.0000000   0.2500000), wk =   0.4000000
        k(    4) = (   0.0000000   0.0000000   0.3500000), wk =   0.4000000
        k(    5) = (   0.0000000   0.0000000   0.4500000), wk =   0.4000000

     Dense  grid:   829091 G-vectors     FFT dimensions: ( 270, 150,  45)

     Dynamical RAM for                 wfc:       4.09 MB

     Dynamical RAM for     wfc (w. buffer):      24.52 MB

     Dynamical RAM for           str. fact:       0.53 MB

     Dynamical RAM for           local pot:       0.00 MB

     Dynamical RAM for          nlocal pot:      12.65 MB

     Dynamical RAM for                qrad:       0.65 MB

     Dynamical RAM for          rho,v,vnew:       3.44 MB

     Dynamical RAM for               rhoin:       1.15 MB

     Dynamical RAM for            rho*nmix:       8.43 MB

     Dynamical RAM for           G-vectors:       2.24 MB

     Dynamical RAM for          h,s,v(r/c):       0.04 MB

     Dynamical RAM for          <psi|beta>:       0.18 MB

     Dynamical RAM for                 psi:       8.17 MB

     Dynamical RAM for                hpsi:       8.17 MB

     Dynamical RAM for      wfcinit/wfcrot:       8.26 MB

     Estimated static dynamical RAM per process >      49.31 MB

     Estimated max dynamical RAM per process >      74.31 MB

     Estimated total dynamical RAM >       1.74 GB

     Initial potential from superposition of free atoms

     starting charge      95.9989, renormalised to      96.0000
     Starting wfcs are random

     total cpu time spent up to now is        4.7 secs

     per-process dynamical memory:    72.3 Mb

     Self-consistent Calculation

     iteration #  1     ecut=   200.00 Ry     beta= 0.70
     Davidson diagonalization with overlap

---- Real-time Memory Report at c_bands before calling an iterative solver
           126 MiB given to the printing process from OS
            70 MiB allocation reported by mallinfo(arena+hblkhd)
        356792 MiB available memory on the node where the printing process lives
------------------
     ethr =  1.00E-02,  avg # of iterations = 14.2

     total cpu time spent up to now is       22.3 secs

     total energy              =    -287.62442003 Ry
     estimated scf accuracy    <       2.58445129 Ry

     iteration #  2     ecut=   200.00 Ry     beta= 0.70
     Davidson diagonalization with overlap

---- Real-time Memory Report at c_bands before calling an iterative solver
           149 MiB given to the printing process from OS
            85 MiB allocation reported by mallinfo(arena+hblkhd)
        356471 MiB available memory on the node where the printing process lives
------------------
     ethr =  2.69E-03,  avg # of iterations =  3.2

     total cpu time spent up to now is       27.7 secs

     total energy              =    -288.03598213 Ry
     estimated scf accuracy    <       0.51616622 Ry

     iteration #  3     ecut=   200.00 Ry     beta= 0.70
     Davidson diagonalization with overlap

---- Real-time Memory Report at c_bands before calling an iterative solver
           151 MiB given to the printing process from OS
            86 MiB allocation reported by mallinfo(arena+hblkhd)
        356453 MiB available memory on the node where the printing process lives
------------------
     ethr =  5.38E-04,  avg # of iterations =  4.4

     total cpu time spent up to now is       33.1 secs

     total energy              =    -288.17481266 Ry
     estimated scf accuracy    <       0.21543314 Ry

     iteration #  4     ecut=   200.00 Ry     beta= 0.70
     Davidson diagonalization with overlap

---- Real-time Memory Report at c_bands before calling an iterative solver
           152 MiB given to the printing process from OS
            87 MiB allocation reported by mallinfo(arena+hblkhd)
        356427 MiB available memory on the node where the printing process lives
------------------
     ethr =  2.24E-04,  avg # of iterations = 10.2

     total cpu time spent up to now is       38.8 secs

     total energy              =    -288.17914044 Ry
     estimated scf accuracy    <       0.64342790 Ry

     iteration #  5     ecut=   200.00 Ry     beta= 0.70
     Davidson diagonalization with overlap

---- Real-time Memory Report at c_bands before calling an iterative solver
           153 MiB given to the printing process from OS
            88 MiB allocation reported by mallinfo(arena+hblkhd)
        356392 MiB available memory on the node where the printing process lives
------------------
     ethr =  2.24E-04,  avg # of iterations =  6.6

     total cpu time spent up to now is       43.3 secs

     total energy              =    -288.23711257 Ry
     estimated scf accuracy    <       0.00720995 Ry

     iteration #  6     ecut=   200.00 Ry     beta= 0.70
     Davidson diagonalization with overlap

---- Real-time Memory Report at c_bands before calling an iterative solver
           154 MiB given to the printing process from OS
            89 MiB allocation reported by mallinfo(arena+hblkhd)
        356361 MiB available memory on the node where the printing process lives
------------------
     c_bands:  1 eigenvalues not converged
     ethr =  7.51E-06,  avg # of iterations = 14.6

     total cpu time spent up to now is       50.5 secs

     total energy              =    -288.23676945 Ry
     estimated scf accuracy    <       0.03569036 Ry

     iteration #  7     ecut=   200.00 Ry     beta= 0.70
     Davidson diagonalization with overlap

---- Real-time Memory Report at c_bands before calling an iterative solver
           155 MiB given to the printing process from OS
            91 MiB allocation reported by mallinfo(arena+hblkhd)
        356326 MiB available memory on the node where the printing process lives
------------------
     ethr =  7.51E-06,  avg # of iterations =  8.4

     total cpu time spent up to now is       55.5 secs

     total energy              =    -288.24018949 Ry
     estimated scf accuracy    <       0.00354272 Ry

     iteration #  8     ecut=   200.00 Ry     beta= 0.70
     Davidson diagonalization with overlap

---- Real-time Memory Report at c_bands before calling an iterative solver
           156 MiB given to the printing process from OS
            91 MiB allocation reported by mallinfo(arena+hblkhd)
        356301 MiB available memory on the node where the printing process lives
------------------
     ethr =  3.69E-06,  avg # of iterations =  4.0

     total cpu time spent up to now is       59.6 secs

     total energy              =    -288.24056012 Ry
     estimated scf accuracy    <       0.00032823 Ry

     iteration #  9     ecut=   200.00 Ry     beta= 0.70
     Davidson diagonalization with overlap

---- Real-time Memory Report at c_bands before calling an iterative solver
           157 MiB given to the printing process from OS
            92 MiB allocation reported by mallinfo(arena+hblkhd)
        356275 MiB available memory on the node where the printing process lives
------------------
     ethr =  3.42E-07,  avg # of iterations =  2.0

     total cpu time spent up to now is       63.8 secs

     total energy              =    -288.24058645 Ry
     estimated scf accuracy    <       0.00004116 Ry

     iteration # 10     ecut=   200.00 Ry     beta= 0.70
     Davidson diagonalization with overlap

---- Real-time Memory Report at c_bands before calling an iterative solver
           158 MiB given to the printing process from OS
            93 MiB allocation reported by mallinfo(arena+hblkhd)
        356250 MiB available memory on the node where the printing process lives
------------------
     ethr =  4.29E-08,  avg # of iterations =  2.6

     total cpu time spent up to now is       68.2 secs

     total energy              =    -288.24059422 Ry
     estimated scf accuracy    <       0.00000372 Ry

     iteration # 11     ecut=   200.00 Ry     beta= 0.70
     Davidson diagonalization with overlap

---- Real-time Memory Report at c_bands before calling an iterative solver
           159 MiB given to the printing process from OS
            94 MiB allocation reported by mallinfo(arena+hblkhd)
        356225 MiB available memory on the node where the printing process lives
------------------
     ethr =  3.88E-09,  avg # of iterations =  5.2

     total cpu time spent up to now is       73.5 secs

     total energy              =    -288.24059518 Ry
     estimated scf accuracy    <       0.00000186 Ry

     iteration # 12     ecut=   200.00 Ry     beta= 0.70
     Davidson diagonalization with overlap

---- Real-time Memory Report at c_bands before calling an iterative solver
           160 MiB given to the printing process from OS
            95 MiB allocation reported by mallinfo(arena+hblkhd)
        356217 MiB available memory on the node where the printing process lives
------------------
     ethr =  1.94E-09,  avg # of iterations =  2.0

     total cpu time spent up to now is       77.5 secs

     End of self-consistent calculation

          k = 0.0000 0.0000 0.0108 (103753 PWs)   bands (ev):

   -17.4250 -17.3983 -16.4139 -16.3782 -16.3724 -16.3501 -13.9345 -13.8943
   -13.8799 -13.8551 -11.0090 -10.9488 -10.0293 -10.0179  -6.7801  -6.7434
    -6.6883  -6.6750  -5.5875  -5.3360  -4.6539  -4.4366  -4.4303  -4.2651
    -4.1248  -4.1160  -3.3363  -3.3256  -3.3183  -3.3116  -1.9413  -1.8700
    -1.8382  -1.8078  -1.3413  -1.3373  -1.3293  -1.3212  -0.7995  -0.5844
    -0.3912  -0.3092  -0.1818  -0.1520  -0.0377  -0.0277   2.1559   2.4190
     4.3848   4.6464   6.4479   6.6959   6.8493   7.0997   7.3133   7.3609
     7.4667   7.5932   7.6894   8.0428   8.2462   8.3824

     occupation numbers 
     1.0000   1.0000   1.0000   1.0000   1.0000   1.0000   1.0000   1.0000
     1.0000   1.0000   1.0000   1.0000   1.0000   1.0000   1.0000   1.0000
     1.0000   1.0000   1.0000   1.0000   1.0000   1.0000   1.0000   1.0000
     1.0000   1.0000   1.0000   1.0000   1.0000   1.0000   1.0000   1.0000
     1.0000   1.0000   1.0000   1.0000   1.0000   1.0000   1.0000   1.0000
     1.0000   1.0000   1.0000   1.0000   1.0000   1.0000   1.0000   1.0000
     0.0000   0.0000   0.0000   0.0000   0.0000   0.0000   0.0000   0.0000
     0.0000   0.0000   0.0000   0.0000   0.0000   0.0000

          k = 0.0000 0.0000 0.0323 (103793 PWs)   bands (ev):

   -17.0625 -17.0362 -16.0595 -16.0245 -16.0188 -15.9968 -13.5980 -13.5587
   -13.5448 -13.5206 -10.7027 -10.6445  -9.7597  -9.7485  -6.6642  -6.6372
    -6.5880  -6.5764  -5.5188  -5.5072  -5.1823  -4.9356  -4.5928  -4.5773
    -4.5675  -4.5666  -4.4044  -4.2443  -4.2405  -4.1161  -2.8183  -2.7673
    -2.7325  -2.6977  -1.6794  -1.6210  -1.5975  -1.5693  -1.2451  -1.2308
    -0.8087  -0.8021  -0.4551  -0.2452  -0.0570   0.0553   2.5182   2.7772
     4.2782   4.5061   6.5479   6.7073   6.9474   6.9896   7.1352   7.6131
     7.7395   7.7883   7.8021   7.8424   7.9829   8.0059

     occupation numbers 
     1.0000   1.0000   1.0000   1.0000   1.0000   1.0000   1.0000   1.0000
     1.0000   1.0000   1.0000   1.0000   1.0000   1.0000   1.0000   1.0000
     1.0000   1.0000   1.0000   1.0000   1.0000   1.0000   1.0000   1.0000
     1.0000   1.0000   1.0000   1.0000   1.0000   1.0000   1.0000   1.0000
     1.0000   1.0000   1.0000   1.0000   1.0000   1.0000   1.0000   1.0000
     1.0000   1.0000   1.0000   1.0000   1.0000   1.0000   1.0000   1.0000
     0.0000   0.0000   0.0000   0.0000   0.0000   0.0000   0.0000   0.0000
     0.0000   0.0000   0.0000   0.0000   0.0000   0.0000

          k = 0.0000 0.0000 0.0538 (103695 PWs)   bands (ev):

   -16.3418 -16.3163 -15.3553 -15.3216 -15.3158 -15.2946 -12.9334 -12.8963
   -12.8830 -12.8602 -10.0926 -10.0382  -9.4421  -9.4297  -7.3383  -7.3310
    -7.3045  -7.3026  -7.2665  -7.2501  -5.4311  -5.4165  -5.3735  -5.3670
    -5.1377  -5.1338  -5.1089  -5.1072  -4.3986  -4.1830  -3.3708  -3.2248
    -3.2118  -3.1146  -2.9983  -2.9773  -1.9099  -1.8755  -1.7108  -1.5916
    -1.5572  -1.4780   0.1748   0.3655   0.5455   0.6458   3.2048   3.4321
     3.6480   3.8052   5.9150   5.9430   6.1378   6.2237   6.8839   6.9498
     7.0269   7.0988   7.8303   7.8888   7.9210   8.6763

     occupation numbers 
     1.0000   1.0000   1.0000   1.0000   1.0000   1.0000   1.0000   1.0000
     1.0000   1.0000   1.0000   1.0000   1.0000   1.0000   1.0000   1.0000
     1.0000   1.0000   1.0000   1.0000   1.0000   1.0000   1.0000   1.0000
     1.0000   1.0000   1.0000   1.0000   1.0000   1.0000   1.0000   1.0000
     1.0000   1.0000   1.0000   1.0000   1.0000   1.0000   1.0000   1.0000
     1.0000   1.0000   1.0000   1.0000   1.0000   1.0000   1.0000   0.9814
     0.0186   0.0001   0.0000   0.0000   0.0000   0.0000   0.0000   0.0000
     0.0000   0.0000   0.0000   0.0000   0.0000   0.0000

          k = 0.0000 0.0000 0.0753 (103573 PWs)   bands (ev):

   -15.2725 -15.2481 -14.3125 -14.2808 -14.2750 -14.2549 -11.9812 -11.9480
   -11.9352 -11.9163 -10.3883 -10.3705  -9.1871  -9.1701  -9.1484  -9.1421
    -9.1306  -9.1275  -7.5262  -7.5175  -7.0301  -7.0086  -7.0000  -6.9843
    -4.9654  -4.9505  -4.9115  -4.9036  -4.8271  -4.7991  -3.9198  -3.8759
    -3.1121  -3.0662  -3.0582  -3.0361  -2.6144  -2.4232  -1.3629  -1.1394
    -1.0980  -0.9487   0.9047   1.0183   1.2064   1.2612   2.1940   2.3570
     4.2500   4.4690   4.7488   4.7838   4.9493   4.9614   5.9109   5.9507
     6.0043   6.0974   7.5524   7.5912   9.3302   9.9743

     occupation numbers 
     1.0000   1.0000   1.0000   1.0000   1.0000   1.0000   1.0000   1.0000
     1.0000   1.0000   1.0000   1.0000   1.0000   1.0000   1.0000   1.0000
     1.0000   1.0000   1.0000   1.0000   1.0000   1.0000   1.0000   1.0000
     1.0000   1.0000   1.0000   1.0000   1.0000   1.0000   1.0000   1.0000
     1.0000   1.0000   1.0000   1.0000   1.0000   1.0000   1.0000   1.0000
     1.0000   1.0000   1.0000   1.0000   1.0000   1.0000   1.0000   1.0000
     0.0000   0.0000   0.0000   0.0000   0.0000   0.0000   0.0000   0.0000
     0.0000   0.0000   0.0000   0.0000   0.0000   0.0000

          k = 0.0000 0.0000 0.0968 (103447 PWs)   bands (ev):

   -13.8745 -13.8517 -12.9614 -12.9329 -12.9267 -12.9083 -12.1936 -12.1729
   -11.5102 -11.4993 -11.4837 -11.4715 -10.2121 -10.1922 -10.1758 -10.1621
    -8.8422  -8.8159  -8.8066  -8.7874  -7.9856  -7.9431  -6.5202  -6.4986
    -6.4927  -6.4843  -5.1494  -5.1450  -4.2143  -4.2057  -4.1795  -4.1721
    -3.4826  -3.4813  -3.4690  -3.4671  -1.3577  -1.1356  -0.2644  -0.0552
    -0.0079   0.1433   0.3900   0.5871   0.9214   0.9984   1.1215   1.2053
     4.1815   4.2711   4.3855   4.4633   4.8641   4.9818   5.0294   5.1382
     5.4783   5.6653   6.6760   6.8068  10.9790  11.1881

     occupation numbers 
     1.0000   1.0000   1.0000   1.0000   1.0000   1.0000   1.0000   1.0000
     1.0000   1.0000   1.0000   1.0000   1.0000   1.0000   1.0000   1.0000
     1.0000   1.0000   1.0000   1.0000   1.0000   1.0000   1.0000   1.0000
     1.0000   1.0000   1.0000   1.0000   1.0000   1.0000   1.0000   1.0000
     1.0000   1.0000   1.0000   1.0000   1.0000   1.0000   1.0000   1.0000
     1.0000   1.0000   1.0000   1.0000   1.0000   1.0000   1.0000   1.0000
     0.0000   0.0000   0.0000   0.0000   0.0000   0.0000   0.0000   0.0000
     0.0000   0.0000   0.0000   0.0000   0.0000   0.0000

     the Fermi energy is     3.5400 ev

!    total energy              =    -288.24059532 Ry
     estimated scf accuracy    <       0.00000026 Ry
     smearing contrib. (-TS)   =      -0.00014848 Ry
     internal energy E=F+TS    =    -288.24044684 Ry

     The total energy is F=E-TS. E is the sum of the following terms:
     one-electron contribution =    -619.60664862 Ry
     hartree contribution      =     344.62782583 Ry
     xc contribution           =    -103.53955943 Ry
     ewald contribution        =      90.27793538 Ry

     convergence has been achieved in  12 iterations

     Forces acting on atoms (cartesian axes, Ry/au):

     atom    1 type  1   force =     0.03357989   -0.01557912   -0.00000087
     atom    2 type  1   force =     0.02275364    0.03947025    0.00000149
     atom    3 type  1   force =    -0.00766670    0.04211036   -0.00000021
     atom    4 type  1   force =    -0.04487965    0.00098268    0.00000205
     atom    5 type  1   force =    -0.03440068   -0.02919253   -0.00000324
     atom    6 type  1   force =     0.02394292   -0.04028737   -0.00000246
     atom    7 type  1   force =     0.03465372    0.02871837   -0.00000204
     atom    8 type  1   force =    -0.02403397    0.03941615    0.00000375
     atom    9 type  1   force =    -0.04013894    0.01510279    0.00000052
     atom   10 type  1   force =    -0.02300360   -0.03957050   -0.00000146
     atom   11 type  1   force =     0.00703407   -0.04126810   -0.00000322
     atom   12 type  1   force =     0.04027759   -0.00253235   -0.00000008
     atom   13 type  1   force =     0.04011491   -0.01510656   -0.00000207
     atom   14 type  1   force =     0.02298581    0.03954835    0.00000082
     atom   15 type  1   force =    -0.00703180    0.04126448    0.00000286
     atom   16 type  1   force =    -0.04026347    0.00251982   -0.00000448
     atom   17 type  1   force =    -0.03465825   -0.02869864    0.00000358
     atom   18 type  1   force =     0.02404959   -0.03941683   -0.00000046
     atom   19 type  1   force =     0.03441135    0.02918800    0.00000219
     atom   20 type  1   force =    -0.02394827    0.04027889   -0.00000613
     atom   21 type  1   force =    -0.03354821    0.01557451    0.00000240
     atom   22 type  1   force =    -0.02275833   -0.03946329    0.00000373
     atom   23 type  1   force =     0.00765008   -0.04208924    0.00000159
     atom   24 type  1   force =     0.04487830   -0.00097011    0.00000174
     The non-local contrib.  to forces
     atom    1 type  1   force =     0.02347264    0.00841965   -0.00000103
     atom    2 type  1   force =     0.02603199    0.01970140    0.00000039
     atom    3 type  1   force =    -0.01637237    0.02156474   -0.00000188
     atom    4 type  1   force =    -0.02532118    0.01567714    0.00000238
     atom    5 type  1   force =    -0.01170875   -0.02860323   -0.00000468
     atom    6 type  1   force =     0.00007009   -0.03243719   -0.00000409
     atom    7 type  1   force =     0.01114531    0.02817865   -0.00000152
     atom    8 type  1   force =     0.00124677    0.03010045    0.00000493
     atom    9 type  1   force =    -0.02614351   -0.00433096   -0.00000076
     atom   10 type  1   force =    -0.02813169   -0.01510838   -0.00000230
     atom   11 type  1   force =     0.01936847   -0.02062745   -0.00000509
     atom   12 type  1   force =     0.02179957   -0.01140239   -0.00000171
     atom   13 type  1   force =     0.02610942    0.00431108   -0.00000254
     atom   14 type  1   force =     0.02817383    0.01506037    0.00000154
     atom   15 type  1   force =    -0.01938685    0.02065500    0.00000243
     atom   16 type  1   force =    -0.02177483    0.01133922   -0.00000357
     atom   17 type  1   force =    -0.01116170   -0.02824977    0.00000275
     atom   18 type  1   force =    -0.00118721   -0.03002520    0.00000037
     atom   19 type  1   force =     0.01175593    0.02847996    0.00000230
     atom   20 type  1   force =    -0.00002330    0.03255399   -0.00000550
     atom   21 type  1   force =    -0.02343464   -0.00837840   -0.00000017
     atom   22 type  1   force =    -0.02605447   -0.01971216    0.00000243
     atom   23 type  1   force =     0.01645092   -0.02154666    0.00000157
     atom   24 type  1   force =     0.02531426   -0.01560252    0.00000195
     The ionic contribution  to forces
     atom    1 type  1   force =     4.87186914   -0.02792379   -0.00000000
     atom    2 type  1   force =     4.02191120    8.19242894   -0.00000000
     atom    3 type  1   force =    -8.42753512    9.74230035   -0.00000000
     atom    4 type  1   force =   -11.98409209    4.24361670    0.00000000
     atom    5 type  1   force =    -8.39569164   -9.74763377   -0.00000000
     atom    6 type  1   force =    -1.25654560  -10.88361013   -0.00000000
     atom    7 type  1   force =     1.98225032   10.14769436    0.00000000
     atom    8 type  1   force =    -5.03302852   10.75516027    0.00000000
     atom    9 type  1   force =   -12.33669910   -0.00539268    0.00000000
     atom   10 type  1   force =   -10.76214223   -7.58930671    0.00000000
     atom   11 type  1   force =     2.02203556  -10.13717441   -0.00000000
     atom   12 type  1   force =     4.79222063   -4.76606569   -0.00000000
     atom   13 type  1   force =    12.33669910    0.00539268   -0.00000000
     atom   14 type  1   force =    10.76214223    7.58930671   -0.00000000
     atom   15 type  1   force =    -2.02203556   10.13717441    0.00000000
     atom   16 type  1   force =    -4.79222063    4.76606569   -0.00000000
     atom   17 type  1   force =    -1.98225032  -10.14769436   -0.00000000
     atom   18 type  1   force =     5.03302852  -10.75516027   -0.00000000
     atom   19 type  1   force =     8.39569164    9.74763377   -0.00000000
     atom   20 type  1   force =     1.25654560   10.88361013    0.00000000
     atom   21 type  1   force =    -4.87186914    0.02792379    0.00000000
     atom   22 type  1   force =    -4.02191120   -8.19242894    0.00000000
     atom   23 type  1   force =     8.42753512   -9.74230035   -0.00000000
     atom   24 type  1   force =    11.98409209   -4.24361670    0.00000000
     The local contribution  to forces
     atom    1 type  1   force =    -4.85082336    0.00358052    0.00000004
     atom    2 type  1   force =    -4.01687638   -8.16427027    0.00000027
     atom    3 type  1   force =     8.43116304   -9.71145047    0.00000110
     atom    4 type  1   force =    11.95344956   -4.25489293   -0.00000045
     atom    5 type  1   force =     8.36703188    9.73710815    0.00000132
     atom    6 type  1   force =     1.28310976   10.86416484    0.00000102
     atom    7 type  1   force =    -1.95235272  -10.13722652   -0.00000109
     atom    8 type  1   force =     5.00552353  -10.73444950   -0.00000144
     atom    9 type  1   force =    12.31123321    0.02541812    0.00000040
     atom   10 type  1   force =    10.75883991    7.55686928    0.00000018
     atom   11 type  1   force =    -2.02928963   10.10597619    0.00000172
     atom   12 type  1   force =    -4.76333577    4.77137611    0.00000098
     atom   13 type  1   force =   -12.31118181   -0.02538381   -0.00000070
     atom   14 type  1   force =   -10.75863054   -7.55713051   -0.00000145
     atom   15 type  1   force =     2.02921442  -10.10623501    0.00000098
     atom   16 type  1   force =     4.76304650   -4.77142630   -0.00000090
     atom   17 type  1   force =     1.95247122   10.13745358    0.00000030
     atom   18 type  1   force =    -5.00516976   10.73456327   -0.00000130
     atom   19 type  1   force =    -8.36658072   -9.73729149    0.00000041
     atom   20 type  1   force =    -1.28288611  -10.86449087   -0.00000064
     atom   21 type  1   force =     4.85058951   -0.00351789    0.00000220
     atom   22 type  1   force =     4.01676961    8.16450156    0.00000087
     atom   23 type  1   force =    -8.43091560    9.71174818   -0.00000026
     atom   24 type  1   force =   -11.95332908    4.25504138   -0.00000031
     The core correction contribution to forces
     atom    1 type  1   force =    -0.01128404    0.00046836    0.00000001
     atom    2 type  1   force =    -0.00849044   -0.00807872    0.00000002
     atom    3 type  1   force =     0.00519876   -0.01025584    0.00000010
     atom    4 type  1   force =     0.01103177   -0.00344505   -0.00000006
     atom    5 type  1   force =     0.00632373    0.00978244    0.00000014
     atom    6 type  1   force =    -0.00255655    0.01140208    0.00000014
     atom    7 type  1   force =    -0.00630300   -0.00975921   -0.00000004
     atom    8 type  1   force =     0.00251662   -0.01130813   -0.00000018
     atom    9 type  1   force =     0.01144092   -0.00059263    0.00000007
     atom   10 type  1   force =     0.00859415    0.00788385    0.00000007
     atom   11 type  1   force =    -0.00532005    0.01023044    0.00000016
     atom   12 type  1   force =    -0.01082492    0.00329620    0.00000007
     atom   13 type  1   force =    -0.01143962    0.00059397    0.00000002
     atom   14 type  1   force =    -0.00859582   -0.00788328   -0.00000009
     atom   15 type  1   force =     0.00532145   -0.01023249   -0.00000005
     atom   16 type  1   force =     0.01082369   -0.00329319   -0.00000000
     atom   17 type  1   force =     0.00630546    0.00976454    0.00000001
     atom   18 type  1   force =    -0.00251684    0.01130531   -0.00000006
     atom   19 type  1   force =    -0.00632350   -0.00977756   -0.00000005
     atom   20 type  1   force =     0.00255573   -0.01140996    0.00000007
     atom   21 type  1   force =     0.01128260   -0.00047059    0.00000011
     atom   22 type  1   force =     0.00849166    0.00808005   -0.00000004
     atom   23 type  1   force =    -0.00520223    0.01025693   -0.00000007
     atom   24 type  1   force =    -0.01103131    0.00344227   -0.00000008
     The Hubbard contrib.    to forces
     atom    1 type  1   force =     0.00000000    0.00000000    0.00000000
     atom    2 type  1   force =     0.00000000    0.00000000    0.00000000
     atom    3 type  1   force =     0.00000000    0.00000000    0.00000000
     atom    4 type  1   force =     0.00000000    0.00000000    0.00000000
     atom    5 type  1   force =     0.00000000    0.00000000    0.00000000
     atom    6 type  1   force =     0.00000000    0.00000000    0.00000000
     atom    7 type  1   force =     0.00000000    0.00000000    0.00000000
     atom    8 type  1   force =     0.00000000    0.00000000    0.00000000
     atom    9 type  1   force =     0.00000000    0.00000000    0.00000000
     atom   10 type  1   force =     0.00000000    0.00000000    0.00000000
     atom   11 type  1   force =     0.00000000    0.00000000    0.00000000
     atom   12 type  1   force =     0.00000000    0.00000000    0.00000000
     atom   13 type  1   force =     0.00000000    0.00000000    0.00000000
     atom   14 type  1   force =     0.00000000    0.00000000    0.00000000
     atom   15 type  1   force =     0.00000000    0.00000000    0.00000000
     atom   16 type  1   force =     0.00000000    0.00000000    0.00000000
     atom   17 type  1   force =     0.00000000    0.00000000    0.00000000
     atom   18 type  1   force =     0.00000000    0.00000000    0.00000000
     atom   19 type  1   force =     0.00000000    0.00000000    0.00000000
     atom   20 type  1   force =     0.00000000    0.00000000    0.00000000
     atom   21 type  1   force =     0.00000000    0.00000000    0.00000000
     atom   22 type  1   force =     0.00000000    0.00000000    0.00000000
     atom   23 type  1   force =     0.00000000    0.00000000    0.00000000
     atom   24 type  1   force =     0.00000000    0.00000000    0.00000000
     The SCF correction term to forces
     atom    1 type  1   force =     0.00034665   -0.00012301   -0.00000031
     atom    2 type  1   force =     0.00017841   -0.00031025    0.00000038
     atom    3 type  1   force =    -0.00011987   -0.00004757    0.00000004
     atom    4 type  1   force =     0.00005343    0.00002768   -0.00000025
     atom    5 type  1   force =    -0.00035475    0.00015472   -0.00000045
     atom    6 type  1   force =    -0.00013363    0.00019389    0.00000006
     atom    7 type  1   force =    -0.00008504   -0.00016806    0.00000018
     atom    8 type  1   force =    -0.00029121   -0.00008607    0.00000001
     atom    9 type  1   force =     0.00003070    0.00000180    0.00000039
     atom   10 type  1   force =    -0.00016260    0.00009232    0.00000017
     atom   11 type  1   force =     0.00024087    0.00032799   -0.00000044
     atom   12 type  1   force =     0.00041921    0.00026428    0.00000014
     atom   13 type  1   force =    -0.00007104   -0.00001963    0.00000072
     atom   14 type  1   force =    -0.00010275    0.00019592    0.00000039
     atom   15 type  1   force =    -0.00014412   -0.00009657   -0.00000093
     atom   16 type  1   force =    -0.00013704   -0.00016475   -0.00000043
     atom   17 type  1   force =    -0.00002176    0.00002823    0.00000008
     atom   18 type  1   force =    -0.00010397   -0.00009909    0.00000009
     atom   19 type  1   force =    -0.00013087    0.00014418   -0.00000089
     atom   20 type  1   force =    -0.00013905    0.00001645   -0.00000049
     atom   21 type  1   force =    -0.00011539    0.00001846   -0.00000016
     atom   22 type  1   force =    -0.00005279    0.00009706    0.00000005
     atom   23 type  1   force =    -0.00021698   -0.00024648   -0.00000008
     atom   24 type  1   force =    -0.00016650   -0.00023369   -0.00000026

     Total force =     0.214439     Total SCF correction =     0.001220

     Writing all to output data dir ./calc.save/

     init_run     :      4.45s CPU      4.66s WALL (       1 calls)
     electrons    :     68.01s CPU     72.89s WALL (       1 calls)
     forces       :      2.33s CPU      2.36s WALL (       1 calls)

     Called by init_run:
     wfcinit      :      1.48s CPU      1.61s WALL (       1 calls)
     wfcinit:wfcr :      1.32s CPU      1.44s WALL (       5 calls)
     potinit      :      0.88s CPU      0.90s WALL (       1 calls)
     hinit0       :      1.84s CPU      1.85s WALL (       1 calls)

     Called by electrons:
     c_bands      :     60.09s CPU     64.21s WALL (      12 calls)
     sum_band     :      6.82s CPU      7.43s WALL (      12 calls)
     v_of_rho     :      0.97s CPU      1.03s WALL (      13 calls)
     v_h          :      0.05s CPU      0.05s WALL (      13 calls)
     v_xc         :      1.00s CPU      1.05s WALL (      14 calls)
     mix_rho      :      0.15s CPU      0.15s WALL (      12 calls)

     Called by c_bands:
     init_us_2    :      0.56s CPU      0.57s WALL (     130 calls)
     init_us_2:cp :      0.56s CPU      0.57s WALL (     130 calls)
     cegterg      :     58.39s CPU     62.51s WALL (      60 calls)

     Called by sum_band:
     sum_band:wei :      0.00s CPU      0.00s WALL (      12 calls)
     sum_band:loo :      6.75s CPU      7.35s WALL (      12 calls)
     sum_band:buf :      0.09s CPU      0.09s WALL (      60 calls)
     sum_band:ini :      0.26s CPU      0.26s WALL (      60 calls)

     Called by *egterg:
     cdiaghg      :      1.94s CPU      1.99s WALL (     447 calls)
     cegterg:over :      3.21s CPU      3.22s WALL (     387 calls)
     cegterg:upda :      2.85s CPU      2.88s WALL (     387 calls)
     cegterg:last :      3.20s CPU      3.23s WALL (     164 calls)
     cdiaghg:chol :      0.11s CPU      0.12s WALL (     447 calls)
     cdiaghg:inve :      0.02s CPU      0.02s WALL (     447 calls)
     cdiaghg:para :      0.20s CPU      0.21s WALL (     894 calls)
     h_psi        :     47.25s CPU     51.36s WALL (     452 calls)
     g_psi        :      0.25s CPU      0.26s WALL (     387 calls)

     Called by h_psi:
     h_psi:calbec :      3.26s CPU      3.31s WALL (     452 calls)
     vloc_psi     :     40.47s CPU     44.51s WALL (     452 calls)
     add_vuspsi   :      3.25s CPU      3.26s WALL (     452 calls)

     General routines
     calbec       :      3.52s CPU      3.58s WALL (     472 calls)
     fft          :      0.69s CPU      0.76s WALL (     140 calls)
     ffts         :      0.03s CPU      0.03s WALL (      12 calls)
     fftw         :     42.95s CPU     47.33s WALL (   27660 calls)

     Parallel routines

     PWSCF        :   1m15.09s CPU   1m22.18s WALL


   This run was terminated on:  18:31:20   3Dec2022            

=------------------------------------------------------------------------------=
   JOB DONE.
=------------------------------------------------------------------------------=
