:MDSTEP: 20
:R(Bohr):
  5.3412370142E+01   1.4867998071E-02   4.6419313826E+01
  3.9989736874E+00   5.3075666637E+01   5.0247086494E+01
  5.3479390428E+01   3.1886624704E+00   4.9680106081E+01
  5.3135827553E+01   3.9524203482E-01   3.8230359661E+01
  3.6633828827E+00   5.3480957253E+01   4.1598962303E+01
  7.1082904858E+00   3.5669008327E-01   4.5643101483E+01
  1.0688706504E+01   5.3346351316E+01   4.9982762697E+01
  5.3451669186E+01   4.0171249126E+00   4.2670602397E+01
  3.7698243134E+00   3.5080889221E+00   4.6124556046E+01
  7.3207295144E+00   3.7645033362E+00   4.9155089897E+01
  5.3487307315E+01   7.4305280325E+00   4.6115326696E+01
  3.9655312472E+00   7.6415919700E+00   5.0272462631E+01
  5.3512666626E+01   1.1716182222E+01   4.9534568304E+01
  6.5307102404E-01   5.3435740612E+01   3.0229556088E+01
  3.0217885055E+00   3.5301201293E-01   3.4089760468E+01
  7.7796437917E+00   5.2961628458E+01   3.8401457305E+01
  1.1190408928E+01   5.3423735676E+01   4.2401032227E+01
  1.5088878372E+01   3.0498139686E-01   4.5731103162E+01
  1.8948956180E+01   5.3378462756E+01   4.9683303720E+01
  5.3515385267E+01   3.9473375887E+00   3.4113713768E+01
  3.9837172781E+00   3.5795558874E+00   3.8111336387E+01
  8.2767864652E+00   3.6410018133E+00   4.2221984286E+01
  1.1395439977E+01   3.7157802740E+00   4.5936580731E+01
  1.5387829275E+01   4.3318744403E+00   4.9663027239E+01
  1.2595172022E-01   8.2725224398E+00   3.8284880450E+01
  4.1394595187E+00   7.4026005762E+00   4.1447956265E+01
  7.1198686851E+00   7.8958261550E+00   4.5725706862E+01
  1.1178320116E+01   7.6425517250E+00   4.9825573628E+01
  5.3065303432E+01   1.1346570875E+01   4.2545831057E+01
  4.1216385512E+00   1.1841266853E+01   4.6021536461E+01
  7.4416356179E+00   1.1938711522E+01   4.9718857059E+01
  5.3255801124E+01   1.5336658661E+01   4.5479396884E+01
  4.1623924341E+00   1.5507042066E+01   4.9325713496E+01
  5.3261824253E+01   1.9206041986E+01   4.9392714445E+01
  5.3386014591E+01   4.1462632621E-01   2.2731900453E+01
  3.7969589570E+00   5.3266745238E+01   2.6441291732E+01
  7.8448189616E+00   5.3340880177E+01   3.0696008000E+01
  1.1959484696E+01   5.3543711278E+01   3.4084060667E+01
  1.4626781888E+01   9.5927626275E-02   3.7843096518E+01
  1.9113202466E+01   5.3326502160E+01   4.2169112938E+01
  2.3334060198E+01   1.9048645748E-01   4.6331990673E+01
  2.7033642751E+01   2.6176026019E-01   4.9926563438E+01
  5.3423572030E+01   3.3084188842E+00   2.6719868962E+01
  4.2457071259E+00   4.2662373655E+00   3.0412080736E+01
  7.5003745086E+00   3.9502497094E+00   3.4514783258E+01
  1.1256307111E+01   4.1027751328E+00   3.8430396620E+01
  1.5660610848E+01   3.4499684652E+00   4.1770287339E+01
  1.9045181299E+01   3.5942857017E+00   4.6351755865E+01
  2.3235045013E+01   3.5777304658E+00   4.9624372736E+01
  5.3268239321E+01   7.4603895460E+00   3.0312362309E+01
  3.5343773761E+00   7.3962921033E+00   3.4528157464E+01
  7.7600886473E+00   7.3688544148E+00   3.8374333144E+01
  1.1560734796E+01   7.7893862404E+00   4.1675342696E+01
  1.4963724496E+01   7.8677510712E+00   4.5809957060E+01
  1.9092372596E+01   7.5556919448E+00   5.0146800729E+01
  5.3299250343E+01   1.1059300197E+01   3.4123788582E+01
  4.0488387647E+00   1.1624822283E+01   3.8068719541E+01
  7.0512583971E+00   1.1549036206E+01   4.2054617509E+01
  1.1482294822E+01   1.0953351609E+01   4.6123976910E+01
  1.5855305587E+01   1.1658788929E+01   4.9334957560E+01
  5.3123976323E+01   1.5894059079E+01   3.8315713717E+01
  3.7153534443E+00   1.5556163131E+01   4.2421895032E+01
  7.7676796296E+00   1.5705670253E+01   4.5389867359E+01
  1.1489110762E+01   1.4806592948E+01   4.9132661764E+01
  5.3371518731E+01   1.9164856844E+01   4.2251645870E+01
  4.1431690098E+00   1.9145348042E+01   4.5642821038E+01
  7.9098111774E+00   1.8768084393E+01   4.9601197172E+01
  2.5341443296E-01   2.3008907072E+01   4.6124661159E+01
  4.2129966747E+00   2.2836723483E+01   4.9705326186E+01
  5.3365667654E+01   2.7215213938E+01   4.9617841224E+01
  5.3475227907E+01   1.1004523799E-01   1.5082890101E+01
  3.4210302402E+00   5.3516864614E+01   1.8910683116E+01
  7.5633415540E+00   5.3156465259E+01   2.2438952073E+01
  1.1444261538E+01   3.3983803484E-01   2.6971875687E+01
  1.5615322174E+01   5.3335335577E+01   3.0590252754E+01
  1.8615037894E+01   5.3279872665E+01   3.4638041131E+01
  2.3130292679E+01   5.3395057986E+01   3.8644281710E+01
  2.6748843416E+01   5.3284373095E+01   4.2333214431E+01
  3.1056292092E+01   5.3337345193E+01   4.5760091122E+01
  3.4395300563E+01   5.3083160872E+01   4.9504924853E+01
  3.1657894499E-01   3.8972349793E+00   1.8591569662E+01
  3.7417642774E+00   3.6607732617E+00   2.3514106320E+01
  8.1867597909E+00   3.8641407742E+00   2.6978797984E+01
  1.1492728633E+01   3.7495569034E+00   3.0843261947E+01
  1.5096234149E+01   4.0404953764E+00   3.4230029525E+01
  1.8875849215E+01   3.4582840449E+00   3.7881828622E+01
  2.2981633927E+01   3.6808199856E+00   4.1949334198E+01
  2.7326521135E+01   3.3827855373E+00   4.5598870794E+01
  3.0816694506E+01   3.8707807276E+00   4.9559249591E+01
  7.3126465825E-02   8.0741734531E+00   2.2408212028E+01
  3.5273661915E+00   8.1484985049E+00   2.6324186497E+01
  7.9631858793E+00   7.4169903107E+00   3.0577913533E+01
  1.1382737838E+01   7.5791591566E+00   3.4233967667E+01
  1.5550610953E+01   7.0806973511E+00   3.8313341259E+01
  1.9191567269E+01   6.9237960536E+00   4.2532879318E+01
  2.2767528267E+01   7.2562615026E+00   4.5801799967E+01
  2.6997685585E+01   7.4547440498E+00   5.0006123606E+01
  3.7397204056E-02   1.1318755395E+01   2.7010786753E+01
  3.7607990507E+00   1.1384743768E+01   3.0907262661E+01
  7.5190286178E+00   1.1223217343E+01   3.4280088472E+01
  1.1433731776E+01   1.1343961611E+01   3.8742955304E+01
  1.5559441860E+01   1.1167091703E+01   4.2416959792E+01
  1.9732516345E+01   1.1486281303E+01   4.5677936526E+01
  2.2432224251E+01   1.1226512254E+01   5.0132285982E+01
  1.8873108882E-01   1.5673545667E+01   3.0015385418E+01
  3.8909443789E+00   1.5576729075E+01   3.3865573975E+01
  7.2486524796E+00   1.5676562470E+01   3.8222124961E+01
  1.2027705611E+01   1.5413336166E+01   4.2715036624E+01
  1.5519645427E+01   1.5397413134E+01   4.5917702819E+01
  1.9587982670E+01   1.5303572664E+01   4.9426432192E+01
  5.3145719274E+01   1.9411411716E+01   3.4489584735E+01
  3.2630470227E+00   1.9238672958E+01   3.7928033122E+01
  7.9843994843E+00   1.9637704827E+01   4.1971381844E+01
  1.1820850181E+01   1.8893510335E+01   4.6458466489E+01
  1.4806262185E+01   1.9543878939E+01   5.0195852972E+01
  1.6773354741E-01   2.3459612374E+01   3.8041068527E+01
  3.9705608878E+00   2.2663122523E+01   4.2205758076E+01
  8.0726090324E+00   2.2969269053E+01   4.6169524651E+01
  1.1410662076E+01   2.3084787031E+01   4.9806274429E+01
  5.3504821130E+01   2.6530152118E+01   4.2069025198E+01
  3.2166497637E+00   2.6910092026E+01   4.5903763740E+01
  7.0767477315E+00   2.6896556479E+01   5.0028472621E+01
  5.3101640041E+01   3.0868214671E+01   4.6227342119E+01
  3.8766395684E+00   3.0702355084E+01   4.9955063092E+01
  5.3517355665E+01   3.4687250992E+01   4.9971479556E+01
  1.0050454832E-01   9.1361507135E-02   7.3958468119E+00
  3.7702455567E+00   5.3469781273E+01   1.1240636476E+01
  7.8510333421E+00   4.3155983965E-01   1.5378255824E+01
  1.1298312028E+01   5.3224338713E+01   1.9086248065E+01
  1.5360825875E+01   5.3466756885E+01   2.2968524880E+01
  1.9469149341E+01   1.0762230238E-01   2.6711711743E+01
  2.3564582267E+01   5.3385079859E+01   3.0969793461E+01
  2.6860018117E+01   5.2975307182E+01   3.4570378056E+01
  3.0169330639E+01   5.3328581751E+01   3.8283071919E+01
  3.4761922783E+01   5.3478095028E+01   4.1950096386E+01
  3.8198879057E+01   4.7753724246E-01   4.6069065582E+01
  4.2492007902E+01   5.3158249338E+01   5.0345413285E+01
  3.9229870974E-02   3.8614360627E+00   1.1360377487E+01
  4.0731155564E+00   3.4703588235E+00   1.5251925444E+01
  7.4469304700E+00   3.8838218729E+00   1.9161700287E+01
  1.1722114381E+01   4.2886386563E+00   2.2892715949E+01
  1.5176877963E+01   3.6763153261E+00   2.6920474507E+01
  1.8720806767E+01   3.7312179822E+00   3.0787838449E+01
  2.2803545250E+01   3.4469344034E+00   3.4721704843E+01
  2.6354907797E+01   3.7571852315E+00   3.8463768624E+01
  3.0571003192E+01   3.4517163722E+00   4.1886835058E+01
  3.4471345942E+01   3.8433160636E+00   4.5903327184E+01
  3.8432643372E+01   4.2346317276E+00   4.9372158609E+01
  5.3445476681E+01   7.6660038889E+00   1.5186873533E+01
  3.5475899355E+00   7.9797483699E+00   1.9305720716E+01
  7.2645582908E+00   7.8174519771E+00   2.2939838616E+01
  1.1987532602E+01   7.5680454987E+00   2.7119121068E+01
  1.5608488976E+01   7.3409370061E+00   3.0549873436E+01
  1.8825143091E+01   7.7788021244E+00   3.4313834103E+01
  2.2703438116E+01   7.5809143212E+00   3.8156849527E+01
  2.7048187424E+01   7.2129031788E+00   4.1644192913E+01
  3.0181980359E+01   7.3195466947E+00   4.5718651968E+01
  3.4521604777E+01   7.1648397129E+00   4.9736398521E+01
  8.4595998078E-02   1.1609404097E+01   1.8659216183E+01
  4.0748990911E+00   1.1721294394E+01   2.2537185605E+01
  7.3997733730E+00   1.1338936687E+01   2.6340066781E+01
  1.1705020592E+01   1.1730490526E+01   3.0740321508E+01
  1.5170545975E+01   1.1084365937E+01   3.4976272912E+01
  1.9609400655E+01   1.1390680632E+01   3.8179427921E+01
  2.2834292408E+01   1.1013776368E+01   4.1624522742E+01
  2.5986258300E+01   1.1188720193E+01   4.5854348783E+01
  3.0165281650E+01   1.1410885956E+01   4.9526381910E+01
  5.3512241369E+01   1.5663262095E+01   2.2315031740E+01
  4.0964202882E+00   1.4854124849E+01   2.6726920002E+01
  7.6590784000E+00   1.5634702234E+01   3.0770021729E+01
  1.1245849193E+01   1.5195211624E+01   3.4309262813E+01
  1.5719049961E+01   1.4649829115E+01   3.8001724943E+01
  1.9213100262E+01   1.5332986917E+01   4.2123116509E+01
  2.3085948091E+01   1.5569563216E+01   4.5817323122E+01
  2.6670943045E+01   1.5501962407E+01   4.9884470068E+01
  3.8255883439E-01   1.9127292256E+01   2.6759597019E+01
  3.8463429986E+00   1.8849532545E+01   3.0549091439E+01
  7.2366196952E+00   1.9416120342E+01   3.4418733953E+01
  1.1133589280E+01   1.9132305467E+01   3.7981339764E+01
  1.4945251342E+01   1.9448300064E+01   4.1817951030E+01
  1.9037521408E+01   1.9482244497E+01   4.6174803952E+01
  2.2803142775E+01   1.9267685372E+01   4.9830468162E+01
  2.1016478041E-01   2.3341905678E+01   3.0290335107E+01
  3.2733321932E+00   2.3015452762E+01   3.4180763205E+01
  7.5163383807E+00   2.3101785002E+01   3.7797876566E+01
  1.1749452385E+01   2.2856929695E+01   4.1807833544E+01
  1.4959818350E+01   2.3159448379E+01   4.6035439412E+01
  1.8970290786E+01   2.3228791145E+01   5.0031138972E+01
  5.3382109894E+01   2.7002938653E+01   3.4551888867E+01
  3.8826226971E+00   2.7092485871E+01   3.8110962479E+01
  7.3527045102E+00   2.6546318913E+01   4.1838212052E+01
  1.0885696936E+01   2.7157548958E+01   4.6210247301E+01
  1.5366248259E+01   2.6555203754E+01   4.9368057601E+01
  2.8167264781E-01   3.0239688291E+01   3.8206692346E+01
  4.1064729852E+00   3.1078399339E+01   4.2471267137E+01
  7.7819927616E+00   3.0855153314E+01   4.5958934311E+01
  1.1098220286E+01   3.0495581335E+01   4.9693433620E+01
  5.3225261443E+01   3.4620603364E+01   4.1711453769E+01
  4.3112503118E+00   3.4588141929E+01   4.6058534164E+01
  7.9782056536E+00   3.4331348081E+01   4.9643208521E+01
  4.1597401478E-01   3.7820767158E+01   4.5517976362E+01
  3.8428569037E+00   3.8059498610E+01   5.0079907577E+01
  2.1840416417E-01   4.1626427569E+01   4.9534174005E+01
  2.2010627434E-01   3.0162930336E-01   1.1200027178E-01
  3.8035219929E+00   5.3358509859E+01   4.2031425545E+00
  7.3247039267E+00   7.1469205854E-02   8.0147340584E+00
  1.1317570185E+01   5.3259991465E+01   1.1378297816E+01
  1.5354127689E+01   5.3450220027E+01   1.5251062455E+01
  1.9626445346E+01   1.4345645684E-01   1.8680607702E+01
  2.3299461221E+01   1.1099711275E-01   2.2770690442E+01
  2.6776916565E+01   5.3122626687E+01   2.6934008359E+01
  3.0900380375E+01   5.3335245852E+01   3.0552930254E+01
  3.3920962052E+01   5.3452837502E+01   3.4561459143E+01
  3.7974532440E+01   5.3427908087E+01   3.7834231564E+01
  4.1780467571E+01   3.5264469364E-01   4.1595895566E+01
  4.5975078889E+01   4.0723137076E-01   4.5349096065E+01
  4.8997821511E+01   7.8611185419E-02   4.9874132382E+01
  2.4832195570E-01   3.8022003379E+00   4.1285993725E+00
  4.3348586428E+00   3.7968012884E+00   7.4741879537E+00
  7.3327587782E+00   4.2573390394E+00   1.1159621708E+01
  1.1494386564E+01   3.7211098426E+00   1.5614121766E+01
  1.5087318112E+01   3.4396765526E+00   1.8686163490E+01
  1.8546507625E+01   3.9471580095E+00   2.3123364743E+01
  2.3482928630E+01   3.7189866609E+00   2.7246257839E+01
  2.6809417279E+01   3.7940301918E+00   3.0336302551E+01
  3.0681276426E+01   3.5673432439E+00   3.4426334198E+01
  3.4492103536E+01   3.9248427013E+00   3.8243040281E+01
  3.8484966789E+01   4.2953358388E+00   4.2229286562E+01
  4.2281660471E+01   3.1342946327E+00   4.6536743684E+01
  4.5874567804E+01   3.9684610520E+00   4.9819366450E+01
  7.0108994756E-02   7.9450932808E+00   7.8033528441E+00
  3.5101750528E+00   7.8899057814E+00   1.1111600833E+01
  7.9760908888E+00   7.4203958231E+00   1.5394417763E+01
  1.1503618829E+01   7.9919049674E+00   1.9031843520E+01
  1.5534252813E+01   7.5998264626E+00   2.2667866768E+01
  1.8914786976E+01   7.7332332789E+00   2.6901269898E+01
  2.2673437928E+01   7.3933862211E+00   3.0557572864E+01
  2.6581340311E+01   7.4424365856E+00   3.4241506694E+01
  3.0716988895E+01   8.0090068558E+00   3.8056298018E+01
  3.4697345072E+01   8.0394124034E+00   4.1656578512E+01
  3.8079749309E+01   7.4219969660E+00   4.5591046946E+01
  4.2391525130E+01   7.4818842690E+00   4.9546143283E+01
  8.1895278347E-02   1.1698261502E+01   1.1457148531E+01
  3.7962523281E+00   1.1079632659E+01   1.5464152777E+01
  7.7380110110E+00   1.1339430253E+01   1.9387048744E+01
  1.1526047770E+01   1.1033078363E+01   2.2807249167E+01
  1.4952615615E+01   1.1412481032E+01   2.7110441418E+01
  1.9105111563E+01   1.1609518225E+01   3.0356630978E+01
  2.3093528651E+01   1.2108948845E+01   3.4555914018E+01
  2.7378857122E+01   1.1877194244E+01   3.8454984458E+01
  3.0436195865E+01   1.1314290780E+01   4.2404920307E+01
  3.4513599038E+01   1.1275385200E+01   4.6194429756E+01
  3.8369535031E+01   1.1350601685E+01   4.9168652936E+01
  3.3405730046E-01   1.5878204186E+01   1.5157903845E+01
  4.2428188926E+00   1.5274559209E+01   1.8878215778E+01
  8.0069861575E+00   1.5522489001E+01   2.2624253181E+01
  1.1717447353E+01   1.5017056362E+01   2.6932588183E+01
  1.5372856388E+01   1.5615714602E+01   3.0088046673E+01
  1.8829605505E+01   1.5509717056E+01   3.4396741325E+01
  2.3055711748E+01   1.4932148455E+01   3.8821299120E+01
  2.6795964659E+01   1.4926485941E+01   4.2923250103E+01
  3.0892332277E+01   1.5537074667E+01   4.5909164992E+01
  3.4777120267E+01   1.5595544754E+01   4.9673575016E+01
  9.1423835401E-02   1.9517076315E+01   1.8769302348E+01
  3.9956363256E+00   1.8719302889E+01   2.3383928528E+01
  7.3879033540E+00   1.9402191160E+01   2.6887676310E+01
  1.1846163101E+01   1.9211888029E+01   3.0635591519E+01
  1.5079506740E+01   1.9137947751E+01   3.4112884773E+01
  1.8918733426E+01   1.9073698257E+01   3.8753822105E+01
  2.3150170006E+01   1.8901765924E+01   4.2530178738E+01
  2.6544948990E+01   1.9013137894E+01   4.6001710206E+01
  3.0755501259E+01   1.9257853359E+01   4.9874423289E+01
  9.9480406672E-02   2.3414054118E+01   2.2785230313E+01
  3.8991974981E+00   2.3404284716E+01   2.6938301130E+01
  7.8746495781E+00   2.2920340479E+01   3.0398168895E+01
  1.1609382685E+01   2.2885668939E+01   3.4357615037E+01
  1.5300325781E+01   2.3307513870E+01   3.7664416708E+01
  1.9180206055E+01   2.3265751694E+01   4.2145187075E+01
  2.2590158312E+01   2.2809942274E+01   4.5853909568E+01
  2.6864555709E+01   2.2908451288E+01   4.9437882855E+01
  5.3448344606E+01   2.6957707425E+01   2.7102672137E+01
  4.4038872960E+00   2.7168111909E+01   3.0307216499E+01
  7.9229958348E+00   2.7258429074E+01   3.4669165500E+01
  1.1099678937E+01   2.6231645160E+01   3.8135594166E+01
  1.4843594529E+01   2.6849988335E+01   4.2333026133E+01
  1.9140059673E+01   2.6727339589E+01   4.6392472404E+01
  2.2984339810E+01   2.6966310822E+01   4.9457817518E+01
  3.9810879084E-01   3.0524945944E+01   3.0868130224E+01
  4.1947169624E+00   3.1008780318E+01   3.4601196987E+01
  8.1007687773E+00   3.0780857003E+01   3.8130856394E+01
  1.1461455661E+01   3.0413898481E+01   4.2109740800E+01
  1.5429351940E+01   3.0991732598E+01   4.5830930370E+01
  1.9149381882E+01   3.0994780272E+01   4.9950553864E+01
  2.8479611943E-02   3.4352150264E+01   3.4291103403E+01
  4.1918707396E+00   3.4143666820E+01   3.8296761167E+01
  7.2420588090E+00   3.4926290418E+01   4.1865951480E+01
  1.1557537228E+01   3.4808010887E+01   4.6175535335E+01
  1.4730154142E+01   3.4653662094E+01   5.0165645535E+01
  1.8690711649E-01   3.8295702309E+01   3.7582953087E+01
  3.4518991654E+00   3.8759517457E+01   4.1896922783E+01
  7.7539731937E+00   3.8067728586E+01   4.6068749067E+01
  1.1864350599E+01   3.8517109469E+01   4.9680598329E+01
  9.9686950195E-02   4.2291622182E+01   4.1885193907E+01
  4.0025535525E+00   4.2258500292E+01   4.5575408763E+01
  7.5766965386E+00   4.1716679132E+01   5.0058301378E+01
  7.7776083632E-02   4.6220953131E+01   4.5249110189E+01
  3.8571054016E+00   4.6338869844E+01   4.9185255691E+01
  5.3343038706E+01   4.9853292444E+01   5.0088134461E+01
  7.7150289826E+00   5.2963680247E+01   2.2885546773E-01
  1.1286477606E+01   5.3161105867E+01   3.8890077593E+00
  1.5745884534E+01   5.3341910480E+01   7.5105566513E+00
  1.9751943708E+01   5.2979045578E+01   1.1443197170E+01
  2.2823801965E+01   5.3357775947E+01   1.5437839046E+01
  2.6821793735E+01   1.4262201771E-01   1.8754200059E+01
  3.0379265507E+01   5.2892311654E+01   2.3145843997E+01
  3.4378535161E+01   5.3244683067E+01   2.6846649025E+01
  3.8821235130E+01   2.8553609274E-01   3.0625120941E+01
  4.1774056644E+01   1.9107632221E-01   3.4707547538E+01
  4.5778389414E+01   2.8404138995E-01   3.7888762966E+01
  5.0108231558E+01   3.9911419281E-01   4.2384537720E+01
  3.8473912936E+00   3.1690846995E+00   1.5470760312E-01
  7.9086879552E+00   4.0033060744E+00   3.9007014853E+00
  1.1354177597E+01   3.6221906238E+00   7.3505739438E+00
  1.4955896501E+01   3.9857283236E+00   1.1481821576E+01
  1.8940778880E+01   4.1458192432E+00   1.5223532234E+01
  2.2675870664E+01   4.1046374058E+00   1.8975229651E+01
  2.6395140912E+01   3.8264928352E+00   2.2651996150E+01
  3.0785448101E+01   3.9827735221E+00   2.6835539576E+01
  3.4648673828E+01   3.5640491700E+00   3.0340636619E+01
  3.8390117425E+01   4.0254409798E+00   3.4488145799E+01
  4.1993921492E+01   4.0039884681E+00   3.8376392832E+01
  4.5867661045E+01   4.2408903907E+00   4.2073890182E+01
  4.9515561079E+01   3.6191280302E+00   4.6343365144E+01
  4.1832414675E-02   7.9478836721E+00   6.4454254114E-02
  3.9260473058E+00   7.4865822164E+00   3.9732450235E+00
  7.5243289852E+00   8.0073441757E+00   7.9715798183E+00
  1.1432417862E+01   7.2002420804E+00   1.1642259061E+01
  1.5364851158E+01   7.6603191892E+00   1.5107422343E+01
  1.9336025559E+01   7.5152637698E+00   1.8952797127E+01
  2.3114685045E+01   7.2104154288E+00   2.3443220561E+01
  2.6978114987E+01   7.7969805229E+00   2.7277174608E+01
  3.0957266068E+01   7.9218564904E+00   3.0565412176E+01
  3.4827291014E+01   7.2332070698E+00   3.4442406528E+01
  3.8485579929E+01   8.2200464149E+00   3.8018651567E+01
  4.1881560320E+01   7.5811978355E+00   4.1884660074E+01
  4.6113969480E+01   7.8361072332E+00   4.5931750816E+01
  4.9972073552E+01   7.6054013440E+00   4.9770110448E+01
  1.3917209857E-01   1.1593708659E+01   3.4402050653E+00
  4.2063768723E+00   1.1831764258E+01   7.0333552736E+00
  7.2916952309E+00   1.1123692225E+01   1.1868344704E+01
  1.1762392413E+01   1.1529535595E+01   1.5691997700E+01
  1.5291617941E+01   1.1750829379E+01   1.9059297041E+01
  1.8947777055E+01   1.1107726341E+01   2.2664521115E+01
  2.2759941978E+01   1.1324519306E+01   2.6638661112E+01
  2.6999613810E+01   1.1539351129E+01   3.0991288656E+01
  3.0698618612E+01   1.1464577817E+01   3.4703290778E+01
  3.4773779643E+01   1.1756978242E+01   3.8147880367E+01
  3.8053099886E+01   1.1319984290E+01   4.1806289141E+01
  4.2073618078E+01   1.1400886064E+01   4.5976966226E+01
  4.6139108629E+01   1.1993069142E+01   4.9187853502E+01
  1.0010176433E-01   1.5670576901E+01   7.1348443893E+00
  3.5772781004E+00   1.5284208882E+01   1.1090745110E+01
  8.5114952861E+00   1.5877687843E+01   1.5712000609E+01
  1.1666499491E+01   1.5509320268E+01   1.9426336564E+01
  1.5505510647E+01   1.5832702198E+01   2.2889133564E+01
  1.9063755483E+01   1.5252997002E+01   2.6971988985E+01
  2.3589993732E+01   1.5161531849E+01   3.0531794336E+01
  2.6730348626E+01   1.5217406346E+01   3.4529523422E+01
  3.0790733283E+01   1.5830279630E+01   3.7769207976E+01
  3.4070404002E+01   1.5291091882E+01   4.2212727726E+01
  3.8212781536E+01   1.5450492545E+01   4.5702136583E+01
  4.1828941898E+01   1.5228809947E+01   4.9775940957E+01
  5.3427426897E+01   1.9319792278E+01   1.1698264940E+01
  4.2544831336E+00   1.8926892620E+01   1.4892222074E+01
  6.8804402507E+00   1.9391752523E+01   1.9464472153E+01
  1.1484667423E+01   1.9524084541E+01   2.3305811171E+01
  1.5626233052E+01   1.9483957544E+01   2.6687593796E+01
  1.9549100992E+01   1.9400794621E+01   3.0813917543E+01
  2.2919446818E+01   1.8930308589E+01   3.4920260660E+01
  2.6395042721E+01   1.9346057415E+01   3.8272984155E+01
  3.0469542768E+01   1.9138271489E+01   4.2119165226E+01
  3.4192406801E+01   1.9249194409E+01   4.5554092754E+01
  3.8728327356E+01   1.9304705197E+01   4.9983743042E+01
  5.3275483622E+01   2.2959939486E+01   1.5406433237E+01
  3.7335798366E+00   2.2792472135E+01   1.8598433122E+01
  7.4557239016E+00   2.2752346650E+01   2.3496060984E+01
  1.1702946779E+01   2.2386653496E+01   2.7167667011E+01
  1.5165343337E+01   2.2939091662E+01   3.0417808328E+01
  1.8639652823E+01   2.2971885895E+01   3.3938610646E+01
  2.2766201487E+01   2.3148172808E+01   3.7874843255E+01
  2.6662908969E+01   2.2575673120E+01   4.2071365695E+01
  3.1229774255E+01   2.3115163577E+01   4.5422406976E+01
  3.4345219848E+01   2.2947339348E+01   5.0060650385E+01
  5.3219661601E+01   2.6620387084E+01   1.9350760558E+01
  3.9501739639E+00   2.6546309095E+01   2.3235084044E+01
  8.0491910930E+00   2.6627747662E+01   2.7067601208E+01
  1.1631596491E+01   2.6299865123E+01   3.0639334618E+01
  1.5521122116E+01   2.6925802246E+01   3.4292871303E+01
  1.9044680697E+01   2.6510676977E+01   3.8337965487E+01
  2.3146675666E+01   2.6837905644E+01   4.2355610039E+01
  2.6993560762E+01   2.6713684643E+01   4.5954088109E+01
  3.0844366703E+01   2.6528364122E+01   4.9651851829E+01
  5.3071569763E+01   3.0835517861E+01   2.2956724413E+01
  4.0112007035E+00   3.0710650296E+01   2.6777211334E+01
  7.6719955484E+00   3.0863058606E+01   3.0607856296E+01
  1.2046118704E+01   3.0557312191E+01   3.4239271290E+01
  1.4974352991E+01   3.0774017736E+01   3.7951968973E+01
  1.8958582736E+01   3.0737718933E+01   4.1967390163E+01
  2.2644562565E+01   3.1051728212E+01   4.5815735456E+01
  2.6744154415E+01   3.0743621011E+01   4.9781385306E+01
  5.3040276218E+01   3.4572597565E+01   2.6840730115E+01
  3.8677180667E+00   3.4350352870E+01   3.0249275002E+01
  8.1522458386E+00   3.4514428712E+01   3.4847427283E+01
  1.1619880772E+01   3.4624023015E+01   3.8594881903E+01
  1.5355828816E+01   3.4496742921E+01   4.2027750267E+01
  1.9119314944E+01   3.4936873097E+01   4.5786613524E+01
  2.3313818095E+01   3.4190543081E+01   4.9682454878E+01
  5.3519586341E+01   3.8613033711E+01   3.0571720915E+01
  4.0169817455E+00   3.8186083952E+01   3.4448273970E+01
  7.7435313686E+00   3.8484708145E+01   3.8403000586E+01
  1.1148745715E+01   3.8678443314E+01   4.2322380569E+01
  1.4772169151E+01   3.8510280978E+01   4.5767614828E+01
  1.8864207656E+01   3.8722632328E+01   4.9512205051E+01
  5.2991743584E+01   4.1842418891E+01   3.4173652349E+01
  3.5807824651E+00   4.2229796719E+01   3.8375740816E+01
  7.6536669873E+00   4.2212530543E+01   4.2089105725E+01
  1.0951645858E+01   4.2328849767E+01   4.6109483717E+01
  1.5613862804E+01   4.2032506573E+01   4.9739279882E+01
  5.3455221140E+01   4.6268769456E+01   3.8013428576E+01
  4.0644909958E+00   4.5934480872E+01   4.1679742101E+01
  7.3808510060E+00   4.5916393875E+01   4.5625985866E+01
  1.1557133993E+01   4.6096211211E+01   4.9826155081E+01
  5.3449906865E+01   5.0078113720E+01   4.1954752458E+01
  3.7193843325E+00   5.0177390258E+01   4.6001773515E+01
  7.7948222473E+00   4.9463648110E+01   4.9662283227E+01
  1.5067882024E+01   5.0456821391E-02   5.3438648539E+01
  1.9741994792E+01   5.3132317423E+01   3.7891592744E+00
  2.2745948516E+01   5.3354924399E+01   7.5735570827E+00
  2.7007776854E+01   1.3425144587E-01   1.1736789413E+01
  3.0429786984E+01   2.2220792088E-01   1.5689602877E+01
  3.4340000365E+01   5.3417285326E+01   1.9246609613E+01
  3.7881547991E+01   5.3245421875E+01   2.3023731209E+01
  4.2336855270E+01   5.3539849865E+01   2.6369666374E+01
  4.5469827262E+01   5.3482427249E+01   3.0633870062E+01
  5.0490906781E+01   7.2849983202E-02   3.4385283010E+01
  1.1752126394E+01   3.9958946112E+00   5.3046589728E+01
  1.5407436756E+01   3.3612062124E+00   3.6434873815E+00
  1.9480509779E+01   3.7291761449E+00   7.2228865443E+00
  2.2412692138E+01   3.7308483074E+00   1.2053287005E+01
  2.6676852458E+01   3.9411310411E+00   1.5663955275E+01
  3.0257398165E+01   4.2305027245E+00   1.8660097173E+01
  3.4544428448E+01   3.2244250404E+00   2.3707265559E+01
  3.8422099473E+01   3.5967258236E+00   2.6966665926E+01
  4.2375721121E+01   3.4369766793E+00   3.1049229178E+01
  4.5585225413E+01   3.8303668490E+00   3.4437444370E+01
  4.9751916280E+01   4.0979729699E+00   3.8490825939E+01
  8.0948657022E+00   7.2277434602E+00   5.3384864259E+01
  1.1208606985E+01   8.0505056657E+00   3.4765169066E+00
  1.4891277458E+01   7.6135963102E+00   7.7700840004E+00
  1.8636999709E+01   7.1641307284E+00   1.0736094004E+01
  2.2753401224E+01   8.0266122706E+00   1.5066915609E+01
  2.6814627950E+01   7.6362262589E+00   1.9370673010E+01
  3.0240797841E+01   7.7357109867E+00   2.3222204942E+01
  3.4463892596E+01   7.6242793054E+00   2.7105830319E+01
  3.8429306087E+01   7.4161320842E+00   3.0738678698E+01
  4.2075743413E+01   7.5700721240E+00   3.4604215571E+01
  4.6344361459E+01   7.6524142409E+00   3.8282676967E+01
  4.9427787759E+01   7.9031817610E+00   4.1926824673E+01
  3.8245500493E+00   1.1501905172E+01   5.3242444831E+01
  7.4738585821E+00   1.1488790187E+01   3.7652146418E+00
  1.1367186496E+01   1.1452999270E+01   7.8535493286E+00
  1.5078007460E+01   1.1580508720E+01   1.1327178009E+01
  1.8977996026E+01   1.1632300881E+01   1.5648649746E+01
  2.2934943029E+01   1.1342141696E+01   1.8670082728E+01
  2.7047044949E+01   1.1235229498E+01   2.2790680997E+01
  3.0257916622E+01   1.2222747961E+01   2.6716257592E+01
  3.4419398864E+01   1.1765998752E+01   3.0641388180E+01
  3.8673399155E+01   1.1380038642E+01   3.3688158080E+01
  4.1992184297E+01   1.1850106410E+01   3.8017421064E+01
  4.6102238846E+01   1.1866967545E+01   4.1659585076E+01
  4.9602490707E+01   1.1476549465E+01   4.5688525819E+01
  2.0157154369E-01   1.5375699575E+01   5.3334331799E+01
  4.1283484439E+00   1.5770049445E+01   4.0097222493E+00
  7.7963373717E+00   1.5135113409E+01   7.8659218933E+00
  1.1319629888E+01   1.4867611398E+01   1.1782374353E+01
  1.5864917407E+01   1.5071025096E+01   1.4914620370E+01
  1.8976382019E+01   1.5518256489E+01   1.8889265469E+01
  2.2381772307E+01   1.4814284233E+01   2.2723526120E+01
  2.6495108333E+01   1.5021381900E+01   2.6599628685E+01
  3.0168454556E+01   1.5430682056E+01   3.1154289826E+01
  3.4487007710E+01   1.5299364639E+01   3.4528641544E+01
  3.8807453914E+01   1.5929751746E+01   3.8174840306E+01
  4.1810056718E+01   1.4849380468E+01   4.2053546100E+01
  4.5857695583E+01   1.5242890095E+01   4.5777119951E+01
  4.9397147442E+01   1.5534615512E+01   5.0010960583E+01
  3.0573022865E-01   1.9149819370E+01   3.4994574059E+00
  4.4793393745E+00   1.8838841788E+01   7.5527013504E+00
  7.9808247767E+00   1.9218653829E+01   1.1832860122E+01
  1.1833889381E+01   1.9563062606E+01   1.5134825279E+01
  1.5271946632E+01   1.9284018102E+01   1.9290680115E+01
  1.8974714780E+01   1.9310417775E+01   2.2730813594E+01
  2.2860706744E+01   1.9099168489E+01   2.7081108508E+01
  2.6731037764E+01   1.9043461877E+01   3.0855265662E+01
  3.0112884535E+01   1.8973993121E+01   3.4340925647E+01
  3.4623281314E+01   1.9222624090E+01   3.7802419628E+01
  3.8072230209E+01   1.9071375372E+01   4.2219673669E+01
  4.2089912172E+01   1.9300400469E+01   4.5775621649E+01
  4.5582218848E+01   1.9191862642E+01   4.9638316405E+01
  1.5548722298E-01   2.3288112133E+01   8.0526811655E+00
  3.7408633161E+00   2.2820070008E+01   1.1549105977E+01
  7.7050529147E+00   2.2915242123E+01   1.5551836425E+01
  1.1225397529E+01   2.2944042464E+01   1.9200951253E+01
  1.4977694689E+01   2.3000288686E+01   2.2660904640E+01
  1.8978550492E+01   2.3100025730E+01   2.7050878246E+01
  2.3090253276E+01   2.2908324706E+01   3.0810153101E+01
  2.7172996219E+01   2.3129536276E+01   3.4963170725E+01
  3.0403923237E+01   2.3380745156E+01   3.8423505584E+01
  3.4304177084E+01   2.2927817709E+01   4.1870336755E+01
  3.8184628119E+01   2.2753001285E+01   4.5535813503E+01
  4.2297332673E+01   2.3236477643E+01   4.9554153023E+01
  3.3352931985E-01   2.6403163301E+01   1.1981160700E+01
  3.7449986987E+00   2.6628304351E+01   1.5336423265E+01
  7.8302361452E+00   2.6393541756E+01   1.9308912131E+01
  1.1885164553E+01   2.7201711100E+01   2.3298925306E+01
  1.5400824420E+01   2.6345331552E+01   2.6698964749E+01