
     Program PWSCF v.7.0 starts on  3Dec2022 at 18:16:36 

     This program is part of the open-source Quantum ESPRESSO suite
     for quantum simulation of materials; please cite
         "P. Giannozzi et al., J. Phys.:Condens. Matter 21 395502 (2009);
         "P. Giannozzi et al., J. Phys.:Condens. Matter 29 465901 (2017);
         "P. Giannozzi et al., J. Chem. Phys. 152 154105 (2020);
          URL http://www.quantum-espresso.org", 
     in publications or presentations arising from this work. More details at
     http://www.quantum-espresso.org/quote

     Parallel version (MPI), running on    24 processors

     MPI processes distributed on     1 nodes
     R & G space division:  proc/nbgrp/npool/nimage =      24
     373854 MiB available memory on the printing compute node when the environment starts

     Reading input from pw.inp
Warning: card &CELL ignored
Warning: card / ignored

     Current dimensions of program PWSCF are:
     Max number of different atomic species (ntypx) = 10
     Max number of k-points (npk) =  40000
     Max angular momentum in pseudopotentials (lmaxx) =  4
     Message from routine cell_base_init:
     DEPRECATED: use true lattice parameter, not A to a.u. conversion factor

     IMPORTANT: XC functional enforced from input :
     Exchange-correlation= PBE
                           (   1   4   3   4   0   0   0)
     Any further DFT definition will be discarded
     Please, verify this is what you really want


     Subspace diagonalization in iterative solution of the eigenvalue problem:
     one sub-group per band group will be used
     scalapack distributed-memory algorithm (size of sub-group:  4*  4 procs)


     Parallelization info
     --------------------
     sticks:   dense  smooth     PW     G-vecs:    dense   smooth      PW
     Min        1259    1259    343                35133    35133    4978
     Max        1261    1261    345                35134    35134    4979
     Sum       30239   30239   8237               843203   843203  119493

     Using Slab Decomposition



     bravais-lattice index     =            0
     lattice parameter (alat)  =       1.0000  a.u.
     unit-cell volume          =    2207.6886 (a.u.)^3
     number of atoms/cell      =           24
     number of atomic types    =            1
     number of electrons       =        96.00
     number of Kohn-Sham states=           62
     kinetic-energy cutoff     =     200.0000  Ry
     charge density cutoff     =     800.0000  Ry
     scf convergence threshold =      1.0E-06
     mixing beta               =       0.7000
     number of iterations used =            8  plain     mixing
     Exchange-correlation= PBE
                           (   1   4   3   4   0   0   0)

     celldm(1)=   1.000000  celldm(2)=   0.000000  celldm(3)=   0.000000
     celldm(4)=   0.000000  celldm(5)=   0.000000  celldm(6)=   0.000000

     crystal axes: (cart. coord. in units of alat)
               a(1) = (  29.687375   0.000000   0.000000 )  
               a(2) = (   0.000000  16.000000   0.000000 )  
               a(3) = (   0.000000   0.000000   4.647785 )  

     reciprocal axes: (cart. coord. in units 2 pi/alat)
               b(1) = (  0.033684  0.000000  0.000000 )  
               b(2) = (  0.000000  0.062500  0.000000 )  
               b(3) = (  0.000000  0.000000  0.215156 )  


     PseudoPot. # 1 for C  read from file:
     .././06_C_4_1.2_1.2_pbe_n_v1.0.upf
     MD5 check sum: 7e0e17a2517474b8bea671dc4b65026c
     Pseudo is Norm-conserving + core correction, Zval =  4.0
     Generated using ONCVPSP code by D. R. Hamann
     Using radial grid of 1246 points,  4 beta functions with: 
                l(1) =   0
                l(2) =   0
                l(3) =   1
                l(4) =   1

     atomic species   valence    mass     pseudopotential
        C              4.00    12.00000     C ( 1.00)

     No symmetry found



   Cartesian axes

     site n.     atom                  positions (alat units)
         1           C   tau(   1) = (  11.8436874   8.0000000   0.0000000  )
         2           C   tau(   2) = (  10.9444353  10.4706746   0.0000000  )
         3           C   tau(   3) = (   6.0781563  11.3287309   0.0000000  )
         4           C   tau(   4) = (   4.3881153   9.3146185   0.0000000  )
         5           C   tau(   5) = (   6.0781563   4.6712691   0.0000000  )
         6           C   tau(   6) = (   8.6674493   4.2147069   0.0000000  )
         7           C   tau(   7) = (   9.9218437  11.3287309   2.3238926  )
         8           C   tau(   8) = (   7.3325507  11.7852931   2.3238926  )
         9           C   tau(   9) = (   4.1563126   8.0000000   2.3238926  )
        10           C   tau(  10) = (   5.0555647   5.5293254   2.3238926  )
        11           C   tau(  11) = (   9.9218437   4.6712691   2.3238926  )
        12           C   tau(  12) = (  11.6118847   6.6853815   2.3238926  )
        13           C   tau(  13) = (  25.5310621   8.0000000   0.0000000  )
        14           C   tau(  14) = (  24.6318101  10.4706746   0.0000000  )
        15           C   tau(  15) = (  19.7655311  11.3287309   0.0000000  )
        16           C   tau(  16) = (  18.0754901   9.3146185   0.0000000  )
        17           C   tau(  17) = (  19.7655311   4.6712691   0.0000000  )
        18           C   tau(  18) = (  22.3548240   4.2147069   0.0000000  )
        19           C   tau(  19) = (  23.6092184  11.3287309   2.3238926  )
        20           C   tau(  20) = (  21.0199254  11.7852931   2.3238926  )
        21           C   tau(  21) = (  17.8436874   8.0000000   2.3238926  )
        22           C   tau(  22) = (  18.7429394   5.5293254   2.3238926  )
        23           C   tau(  23) = (  23.6092184   4.6712691   2.3238926  )
        24           C   tau(  24) = (  25.2992594   6.6853815   2.3238926  )

     number of k points=     5  Fermi-Dirac smearing, width (Ry)=  0.0020
                       cart. coord. in units 2pi/alat
        k(    1) = (   0.0000000   0.0000000   0.0107578), wk =   0.4000000
        k(    2) = (   0.0000000   0.0000000   0.0322734), wk =   0.4000000
        k(    3) = (   0.0000000   0.0000000   0.0537891), wk =   0.4000000
        k(    4) = (   0.0000000   0.0000000   0.0753047), wk =   0.4000000
        k(    5) = (   0.0000000   0.0000000   0.0968203), wk =   0.4000000

     Dense  grid:   843203 G-vectors     FFT dimensions: ( 270, 150,  45)

     Estimated max dynamical RAM per process >      75.47 MB

     Estimated total dynamical RAM >       1.77 GB

     Initial potential from superposition of free atoms

     starting charge      95.9989, renormalised to      96.0000
     Starting wfcs are random

     total cpu time spent up to now is        5.5 secs

     per-process dynamical memory:    72.8 Mb

     Self-consistent Calculation

     iteration #  1     ecut=   200.00 Ry     beta= 0.70
     Davidson diagonalization with overlap
     ethr =  1.00E-02,  avg # of iterations = 14.4

     total cpu time spent up to now is       23.1 secs

     total energy              =    -287.62978332 Ry
     estimated scf accuracy    <       2.59523912 Ry

     iteration #  2     ecut=   200.00 Ry     beta= 0.70
     Davidson diagonalization with overlap
     ethr =  2.70E-03,  avg # of iterations =  3.4

     total cpu time spent up to now is       28.5 secs

     total energy              =    -288.03937641 Ry
     estimated scf accuracy    <       0.52407006 Ry

     iteration #  3     ecut=   200.00 Ry     beta= 0.70
     Davidson diagonalization with overlap
     ethr =  5.46E-04,  avg # of iterations =  4.0

     total cpu time spent up to now is       33.9 secs

     total energy              =    -288.21282436 Ry
     estimated scf accuracy    <       0.14182176 Ry

     iteration #  4     ecut=   200.00 Ry     beta= 0.70
     Davidson diagonalization with overlap
     ethr =  1.48E-04,  avg # of iterations = 10.4

     total cpu time spent up to now is       39.7 secs

     total energy              =    -288.22917012 Ry
     estimated scf accuracy    <       0.11597426 Ry

     iteration #  5     ecut=   200.00 Ry     beta= 0.70
     Davidson diagonalization with overlap
     ethr =  1.21E-04,  avg # of iterations =  4.0

     total cpu time spent up to now is       43.9 secs

     total energy              =    -288.24049359 Ry
     estimated scf accuracy    <       0.02478604 Ry

     iteration #  6     ecut=   200.00 Ry     beta= 0.70
     Davidson diagonalization with overlap
     c_bands:  1 eigenvalues not converged
     ethr =  2.58E-05,  avg # of iterations =  9.2

     total cpu time spent up to now is       48.8 secs

     total energy              =    -288.24182965 Ry
     estimated scf accuracy    <       0.01951197 Ry

     iteration #  7     ecut=   200.00 Ry     beta= 0.70
     Davidson diagonalization with overlap
     ethr =  2.03E-05,  avg # of iterations =  3.6

     total cpu time spent up to now is       53.1 secs

     total energy              =    -288.24407581 Ry
     estimated scf accuracy    <       0.00062909 Ry

     iteration #  8     ecut=   200.00 Ry     beta= 0.70
     Davidson diagonalization with overlap
     ethr =  6.55E-07,  avg # of iterations =  8.2

     total cpu time spent up to now is       58.5 secs

     total energy              =    -288.24422515 Ry
     estimated scf accuracy    <       0.00005692 Ry

     iteration #  9     ecut=   200.00 Ry     beta= 0.70
     Davidson diagonalization with overlap
     ethr =  5.93E-08,  avg # of iterations =  3.8

     total cpu time spent up to now is       63.2 secs

     total energy              =    -288.24423112 Ry
     estimated scf accuracy    <       0.00002113 Ry

     iteration # 10     ecut=   200.00 Ry     beta= 0.70
     Davidson diagonalization with overlap
     ethr =  2.20E-08,  avg # of iterations =  2.0

     total cpu time spent up to now is       67.5 secs

     total energy              =    -288.24423099 Ry
     estimated scf accuracy    <       0.00000953 Ry

     iteration # 11     ecut=   200.00 Ry     beta= 0.70
     Davidson diagonalization with overlap
     ethr =  9.93E-09,  avg # of iterations =  2.0

     total cpu time spent up to now is       71.7 secs

     total energy              =    -288.24423241 Ry
     estimated scf accuracy    <       0.00000122 Ry

     iteration # 12     ecut=   200.00 Ry     beta= 0.70
     Davidson diagonalization with overlap
     ethr =  1.27E-09,  avg # of iterations =  2.0

     total cpu time spent up to now is       76.2 secs

     End of self-consistent calculation

          k = 0.0000 0.0000 0.0108 (105573 PWs)   bands (ev):

   -17.5466 -17.5326 -16.5267 -16.5077 -16.5030 -16.4904 -14.0433 -14.0197
   -14.0120 -13.9988 -11.1199 -11.0849 -10.1575 -10.1517  -6.8832  -6.8596
    -6.8280  -6.8198  -5.6611  -5.4942  -4.7275  -4.5652  -4.5604  -4.4545
    -4.2498  -4.2457  -3.4586  -3.4539  -3.4467  -3.4431  -2.0544  -1.9921
    -1.9722  -1.9540  -1.4638  -1.4635  -1.4572  -1.4527  -0.8795  -0.6837
    -0.5467  -0.5014  -0.3146  -0.2981  -0.1620  -0.1571   2.0493   2.2573
     4.2679   4.4800   6.3184   6.5848   6.7391   6.9423   7.1155   7.2010
     7.3512   7.4319   7.5279   7.9342   8.1204   8.2093

          k = 0.0000 0.0000 0.0323 (105585 PWs)   bands (ev):

   -17.1843 -17.1705 -16.1726 -16.1540 -16.1493 -16.1370 -13.7072 -13.6843
   -13.6768 -13.6640 -10.8141 -10.7804  -9.8882  -9.8826  -6.7724  -6.7548
    -6.7269  -6.7195  -5.6428  -5.6372  -5.2544  -5.0918  -4.7128  -4.7045
    -4.6972  -4.6966  -4.4927  -4.3733  -4.3705  -4.2898  -2.9302  -2.8863
    -2.8671  -2.8442  -1.7953  -1.7447  -1.7296  -1.7130  -1.3682  -1.3608
    -0.9378  -0.9316  -0.5358  -0.3456  -0.2131  -0.1525   2.4127   2.6174
     4.1647   4.3407   6.4484   6.6056   6.7897   6.8442   6.9695   7.5197
     7.5747   7.6279   7.6637   7.7193   7.8155   7.8567

          k = 0.0000 0.0000 0.0538 (105435 PWs)   bands (ev):

   -16.4638 -16.4504 -15.4689 -15.4511 -15.4463 -15.4344 -13.0437 -13.0221
   -13.0150 -13.0030 -10.2048 -10.1735  -9.5706  -9.5646  -7.4568  -7.4529
    -7.4380  -7.4374  -7.3914  -7.3833  -5.5424  -5.5337  -5.5090  -5.5042
    -5.2577  -5.2569  -5.2420  -5.2412  -4.4821  -4.3392  -3.4557  -3.3497
    -3.3422  -3.2774  -3.1199  -3.1086  -2.0317  -2.0087  -1.8142  -1.7158
    -1.6929  -1.6453   0.0941   0.2661   0.3904   0.4443   3.1056   3.3020
     3.5139   3.6382   5.8032   5.8512   5.9893   6.0617   6.7696   6.8328
     6.8888   6.9486   7.7085   7.7547   7.7774   8.4867

          k = 0.0000 0.0000 0.0753 (105313 PWs)   bands (ev):

   -15.3947 -15.3820 -14.4269 -14.4104 -14.4055 -14.3942 -12.0937 -12.0742
   -12.0675 -12.0579 -10.5134 -10.5044  -9.2988  -9.2876  -9.2770  -9.2717
    -9.2664  -9.2636  -7.6527  -7.6483  -7.1462  -7.1349  -7.1301  -7.1219
    -5.0788  -5.0694  -5.0471  -5.0420  -4.9464  -4.9311  -4.0389  -4.0109
    -3.2196  -3.1927  -3.1882  -3.1708  -2.7086  -2.5800  -1.4320  -1.2616
    -1.2349  -1.1424   0.8158   0.9254   1.0505   1.0764   2.0955   2.2001
     4.1452   4.3166   4.6584   4.6664   4.7981   4.8026   5.8056   5.8290
     5.8737   5.9395   7.4314   7.4597   9.1883   9.7958

          k = 0.0000 0.0000 0.0968 (105213 PWs)   bands (ev):

   -13.9972 -13.9854 -13.0772 -13.0626 -13.0573 -13.0469 -12.3169 -12.3063
   -11.6311 -11.6268 -11.6165 -11.6090 -10.3263 -10.3151 -10.3065 -10.2989
    -8.9559  -8.9417  -8.9367  -8.9263  -8.1011  -8.0771  -6.6372  -6.6268
    -6.6239  -6.6173  -5.2782  -5.2759  -4.3327  -4.3275  -4.3127  -4.3081
    -3.6073  -3.6066  -3.5991  -3.5984  -1.4353  -1.2918  -0.3290  -0.1728
    -0.1435  -0.0489   0.3106   0.4358   0.8309   0.8826   0.9680   1.0220
     4.0879   4.1656   4.2454   4.3006   4.7703   4.8621   4.8976   4.9709
     5.3639   5.5109   6.5629   6.6633  10.8621  11.0471

     the Fermi energy is     3.4078 ev

!    total energy              =    -288.24423248 Ry
     estimated scf accuracy    <       0.00000022 Ry
     smearing contrib. (-TS)   =      -0.00015823 Ry
     internal energy E=F+TS    =    -288.24407425 Ry

     The total energy is F=E-TS. E is the sum of the following terms:
     one-electron contribution =    -616.13676669 Ry
     hartree contribution      =     342.43529740 Ry
     xc contribution           =    -103.52881452 Ry
     ewald contribution        =      88.98620956 Ry

     convergence has been achieved in  12 iterations

     Forces acting on atoms (cartesian axes, Ry/au):

     atom    1 type  1   force =     0.03924674   -0.01829330   -0.00000332
     atom    2 type  1   force =     0.02118541    0.04142124   -0.00000240
     atom    3 type  1   force =    -0.00631497    0.04514638    0.00000218
     atom    4 type  1   force =    -0.04549732   -0.00177287    0.00000192
     atom    5 type  1   force =    -0.03787145   -0.02945308   -0.00000118
     atom    6 type  1   force =     0.02671662   -0.03929471    0.00000177
     atom    7 type  1   force =     0.03808307    0.02923321    0.00000199
     atom    8 type  1   force =    -0.02677207    0.03873378    0.00000099
     atom    9 type  1   force =    -0.04190325    0.01780941   -0.00000036
     atom   10 type  1   force =    -0.02101422   -0.04147591   -0.00000116
     atom   11 type  1   force =     0.00605977   -0.04466934    0.00000209
     atom   12 type  1   force =     0.04315130    0.00109340   -0.00000000
     atom   13 type  1   force =     0.04190585   -0.01780377   -0.00000166
     atom   14 type  1   force =     0.02103408    0.04149068   -0.00000061
     atom   15 type  1   force =    -0.00606448    0.04467381   -0.00000331
     atom   16 type  1   force =    -0.04317670   -0.00109069    0.00000364
     atom   17 type  1   force =    -0.03808768   -0.02924095    0.00000019
     atom   18 type  1   force =     0.02677614   -0.03876563    0.00000017
     atom   19 type  1   force =     0.03787624    0.02945733    0.00000191
     atom   20 type  1   force =    -0.02670889    0.03930526   -0.00000530
     atom   21 type  1   force =    -0.03924899    0.01829608    0.00000440
     atom   22 type  1   force =    -0.02120686   -0.04143760    0.00000235
     atom   23 type  1   force =     0.00631909   -0.04514542   -0.00000129
     atom   24 type  1   force =     0.04551258    0.00178268   -0.00000300

     Total force =     0.225429     Total SCF correction =     0.001180

     Writing all to output data dir ./calc.save/

     init_run     :      4.52s CPU      5.38s WALL (       1 calls)
     electrons    :     65.93s CPU     70.82s WALL (       1 calls)
     forces       :      2.35s CPU      2.37s WALL (       1 calls)

     Called by init_run:
     wfcinit      :      1.48s CPU      2.00s WALL (       1 calls)
     potinit      :      0.86s CPU      0.87s WALL (       1 calls)
     hinit0       :      1.91s CPU      2.17s WALL (       1 calls)

     Called by electrons:
     c_bands      :     57.85s CPU     61.97s WALL (      12 calls)
     sum_band     :      6.98s CPU      7.57s WALL (      12 calls)
     v_of_rho     :      0.97s CPU      1.03s WALL (      13 calls)
     mix_rho      :      0.15s CPU      0.16s WALL (      12 calls)

     Called by c_bands:
     init_us_2    :      0.57s CPU      0.57s WALL (     130 calls)
     init_us_2:cp :      0.57s CPU      0.57s WALL (     130 calls)
     cegterg      :     56.15s CPU     60.25s WALL (      60 calls)

     Called by *egterg:
     cdiaghg      :      1.68s CPU      1.97s WALL (     395 calls)
     h_psi        :     45.92s CPU     50.15s WALL (     400 calls)
     g_psi        :      0.25s CPU      0.25s WALL (     335 calls)

     Called by h_psi:
     h_psi:calbec :      3.14s CPU      3.32s WALL (     400 calls)
     vloc_psi     :     39.42s CPU     43.42s WALL (     400 calls)
     add_vuspsi   :      3.09s CPU      3.15s WALL (     400 calls)

     General routines
     calbec       :      3.41s CPU      3.59s WALL (     420 calls)
     fft          :      0.70s CPU      1.03s WALL (     140 calls)
     ffts         :      0.03s CPU      0.03s WALL (      12 calls)
     fftw         :     42.15s CPU     46.46s WALL (   27062 calls)

     Parallel routines

     PWSCF        :   1m13.04s CPU   1m20.43s WALL


   This run was terminated on:  18:17:56   3Dec2022            

=------------------------------------------------------------------------------=
   JOB DONE.
=------------------------------------------------------------------------------=
