:MDSTEP: 20
:R(Bohr):
  3.8057952839E+01   3.5170744437E-02   3.0681217478E+01
  4.1031293734E+00   3.7904054934E+01   3.5070994733E+01
  3.8151911069E+01   3.3691200566E+00   3.4364165458E+01
  3.7974643334E+01   3.8051277542E+01   2.2828052615E+01
  3.6101313241E+00   2.7690413493E-01   2.6654589134E+01
  7.1464654847E+00   2.3177797375E-01   3.0293490686E+01
  1.0710417769E+01   3.8208806326E+01   3.4094880154E+01
  3.8059157390E+01   3.7250053468E+00   2.6813566764E+01
  3.8050725950E+00   3.7225401519E+00   3.0252453498E+01
  7.2816647772E+00   3.5474124573E+00   3.4324894013E+01
  3.8146894928E+01   7.6859356436E+00   3.0568643393E+01
  3.8944396417E+00   7.2390570429E+00   3.4709678484E+01
  2.3482935795E-02   1.1075573363E+01   3.4914802884E+01
  5.5482866017E-01   3.8199867740E+01   1.5094555477E+01
  3.0174511007E+00   4.2880745530E-01   1.8802176225E+01
  7.7113741553E+00   3.7636087063E+01   2.2638177261E+01
  1.1169501870E+01   3.1201416325E-01   2.6594955985E+01
  1.5147135050E+01   3.8031559822E+01   3.0174323472E+01
  1.8981794914E+01   3.7984343601E+01   3.4116136489E+01
  3.8118294660E+01   4.4186984611E+00   1.9010975681E+01
  3.9213045448E+00   3.5900579962E+00   2.2998859924E+01
  8.2566764686E+00   3.8191175683E+00   2.6730886201E+01
  1.1347408158E+01   4.2510174421E+00   3.0344725862E+01
  1.5347277392E+01   4.0938188150E+00   3.4558454295E+01
  1.7213689937E-01   7.9088921854E+00   2.2989529399E+01
  4.1423393793E+00   7.0902787435E+00   2.6220318236E+01
  7.1025827567E+00   7.3051190581E+00   3.0889915060E+01
  1.1133000763E+01   7.0039380744E+00   3.4967932447E+01
  3.7791954133E+01   1.1198744428E+01   2.7298283192E+01
  4.1164373168E+00   1.1691043875E+01   3.0984993034E+01
  7.4775492982E+00   1.2171646893E+01   3.4384234411E+01
  3.8161179825E+01   1.5179681280E+01   3.0241222887E+01
  4.1772861545E+00   1.5844584052E+01   3.3924629420E+01
  3.7890375568E+01   1.9038946851E+01   3.4185905597E+01
  3.8076545146E+01   4.3644747317E-01   7.8043886534E+00
  3.7890742513E+00   3.8127322451E+01   1.1124519893E+01
  7.8351618090E+00   2.6621190097E-01   1.5271619797E+01
  1.1878219828E+01   2.9339746941E-01   1.8979924461E+01
  1.4827244088E+01   3.7940129078E+01   2.2911626150E+01
  1.9100995678E+01   3.7875219609E+01   2.7055200543E+01
  2.3239204081E+01   1.2154200567E-01   3.0397245533E+01
  2.6928434841E+01   1.2818345139E-01   3.4362078939E+01
  3.8178816054E+01   3.6816511588E+00   1.1513054971E+01
  4.3829647221E+00   3.9633375557E+00   1.5726931911E+01
  7.5343771549E+00   3.3622229453E+00   1.9752457539E+01
  1.1250843919E+01   3.5620858293E+00   2.2919454453E+01
  1.5545053576E+01   3.9801769947E+00   2.7065457692E+01
  1.9043990490E+01   3.6710811362E+00   3.0881827899E+01
  2.3265845535E+01   4.1405389939E+00   3.4789950552E+01
  3.7767817969E+01   7.4616214752E+00   1.5225970936E+01
  3.5967047550E+00   7.5535968830E+00   1.8977742860E+01
  7.9356337446E+00   7.5265321547E+00   2.3291148044E+01
  1.1490593723E+01   8.1543960561E+00   2.6611403243E+01
  1.4902587345E+01   7.7360731625E+00   3.0293916601E+01
  1.9108767273E+01   7.3160533300E+00   3.4725151366E+01
  3.7877272102E+01   1.1125348358E+01   1.9225991838E+01
  4.0172102746E+00   1.1575068481E+01   2.3226161019E+01
  7.0376957605E+00   1.1479950806E+01   2.6995163593E+01
  1.1549132291E+01   1.1388521242E+01   3.0421727992E+01
  1.5828284572E+01   1.1104352299E+01   3.4359976581E+01
  3.7863608830E+01   1.5133628280E+01   2.3285073163E+01
  3.6344368709E+00   1.5440198284E+01   2.6808951647E+01
  7.7625489558E+00   1.5648321799E+01   3.0112347611E+01
  1.1516696676E+01   1.4566377997E+01   3.4481512884E+01
  3.8075706113E+01   1.9239766422E+01   2.6829164352E+01
  4.1257440897E+00   1.9606403241E+01   3.0607311800E+01
  7.9693684361E+00   1.8979604619E+01   3.4287706937E+01
  1.9828500897E-01   2.2884827452E+01   3.0480385171E+01
  4.2887943252E+00   2.3290674048E+01   3.4832132659E+01
  3.8013848767E+01   2.6392571680E+01   3.4616769097E+01
  3.8240555365E+01   3.7985695095E+01   3.7852866284E+01
  3.2275330571E+00   6.9044146280E-02   4.0311954607E+00
  7.5617449009E+00   9.7888930445E-02   7.1564427969E+00
  1.1687871908E+01   1.6197400034E-01   1.1546527440E+01
  1.5545869291E+01   3.8062229481E+01   1.5752441962E+01
  1.8648638586E+01   6.3470290863E-02   1.9315519027E+01
  2.3193806185E+01   3.8053987745E+01   2.3100231451E+01
  2.6782619766E+01   4.8541365378E-02   2.6610656400E+01
  3.1053762405E+01   1.3528446756E-03   3.0810507289E+01
  3.4416345046E+01   3.7951332823E+01   3.4734844079E+01
  3.8530932502E-01   4.2468518081E+00   3.6652340566E+00
  3.6789126519E+00   3.7600431660E+00   8.1287203099E+00
  8.0215760993E+00   3.8877474694E+00   1.1486415574E+01
  1.1454032033E+01   3.6129117199E+00   1.5185742645E+01
  1.5083053867E+01   3.9965016065E+00   1.9059532764E+01
  1.9010448770E+01   3.5803611441E+00   2.2843467337E+01
  2.2961347108E+01   3.8170583083E+00   2.6416573376E+01
  2.7307948736E+01   3.6344661406E+00   3.0114200695E+01
  3.0821996912E+01   3.6891310178E+00   3.4243187469E+01
  1.3704818317E-01   7.8765726576E+00   7.6143299488E+00
  3.4893865426E+00   7.6310299680E+00   1.1525043672E+01
  7.8467674866E+00   7.7166368437E+00   1.5630596596E+01
  1.1491513016E+01   7.8549020394E+00   1.8901241039E+01
  1.5473153567E+01   7.0807499467E+00   2.3075097730E+01
  1.9338911543E+01   7.1451042533E+00   2.6902379516E+01
  2.2744730402E+01   7.3388965335E+00   3.0833577063E+01
  2.7067576443E+01   7.1633671571E+00   3.4451171542E+01
  1.4014871506E-01   1.1495956040E+01   1.1778130611E+01
  3.7244360891E+00   1.1221579201E+01   1.5869386014E+01
  7.4442788845E+00   1.0915305437E+01   1.9152389378E+01
  1.1408844377E+01   1.1587436007E+01   2.2892979333E+01
  1.5582952667E+01   1.1562606465E+01   2.7130321019E+01
  1.9624805165E+01   1.1075301059E+01   3.0304982166E+01
  2.2378771262E+01   1.1073404766E+01   3.4236307895E+01
  2.3132162847E-01   1.5352284984E+01   1.5425824705E+01
  4.0240714749E+00   1.6014131988E+01   1.8559130426E+01
  7.3071871192E+00   1.5754953301E+01   2.3110844689E+01
  1.1970424080E+01   1.5637132867E+01   2.7303695230E+01
  1.5475140028E+01   1.5276124221E+01   3.1058969176E+01
  1.9635974943E+01   1.5952559710E+01   3.4759671880E+01
  3.7682281502E+01   1.9096289834E+01   1.8967741810E+01
  3.2372293519E+00   1.9154719610E+01   2.2789822600E+01
  8.0020334579E+00   1.9392541880E+01   2.6867203901E+01
  1.1774928605E+01   1.9073278111E+01   3.0681407577E+01
  1.4808422424E+01   1.8850436363E+01   3.4134921707E+01
  1.0763076603E-01   2.3423776760E+01   2.2944101936E+01
  3.9537016612E+00   2.2530162659E+01   2.6336931328E+01
  7.9333264736E+00   2.2945139449E+01   3.0534784331E+01
  1.1387666221E+01   2.2930034445E+01   3.4279434984E+01
  3.8231536693E+01   2.6762164896E+01   2.6689393035E+01
  3.1864158852E+00   2.6629248924E+01   3.0473838916E+01
  6.8615575021E+00   2.7365486792E+01   3.4146453412E+01
  3.7760610037E+01   3.0084713437E+01   3.1297065464E+01
  3.8442785540E+00   3.0806009652E+01   3.4689238256E+01
  3.8211287923E+01   3.4457006940E+01   3.4386720728E+01
  7.6623498837E+00   3.7956933216E+01   3.4918928273E-01
  1.1520766309E+01   3.8163505675E+01   4.0034891849E+00
  1.5590858950E+01   3.8069424005E-01   7.6018918442E+00
  1.8894318692E+01   9.4269364530E-02   1.1663445020E+01
  2.3001123397E+01   3.8147243562E+01   1.5267673159E+01
  2.7080014421E+01   3.7991904469E+01   1.8785376997E+01
  3.1284872632E+01   3.8239028172E+01   2.2960244314E+01
  3.4404134732E+01   2.2081653614E-01   2.6946494710E+01
  3.5173957798E+00   3.6197521157E+00   3.8071487362E+01
  7.9223668850E+00   4.0418092459E+00   3.9399659497E+00
  1.1476450978E+01   3.6289679576E+00   7.4910571886E+00
  1.5698374760E+01   3.8316397455E+00   1.2025424971E+01
  1.9248797227E+01   3.7297570214E+00   1.5488726680E+01
  2.3153522620E+01   3.4526724792E+00   1.9547318967E+01
  2.6657767872E+01   3.4757176393E+00   2.2951981852E+01
  3.0890110725E+01   3.5459015940E+00   2.6373048276E+01
  3.4229495652E+01   4.2799511535E+00   3.0700942387E+01
  3.7928163143E+01   7.3972915013E+00   8.7645835657E-02
  3.6521086786E+00   7.6254283056E+00   4.0067941399E+00
  7.1978066202E+00   7.9801913162E+00   7.9365215390E+00
  1.1447896820E+01   7.3679516203E+00   1.1827762648E+01
  1.5365318512E+01   7.1226210969E+00   1.5490754464E+01
  1.9289802397E+01   7.3751763394E+00   1.9183007390E+01
  2.2822793449E+01   7.8806920162E+00   2.3292350998E+01
  2.6469302277E+01   7.6087306994E+00   2.6548062085E+01
  3.0386841050E+01   7.5825232402E+00   3.0765622376E+01
  3.4759543485E+01   7.2491359163E+00   3.4712100904E+01
  3.0781829527E-01   1.1296577052E+01   4.1185966355E+00
  3.5365336339E+00   1.1255774909E+01   7.5812428686E+00
  7.4822764025E+00   1.2086544231E+01   1.1269815589E+01
  1.1762302271E+01   1.1165621682E+01   1.5122471727E+01
  1.4981038744E+01   1.1415405291E+01   1.8866313249E+01
  1.9259499368E+01   1.0998543575E+01   2.2996344059E+01
  2.3291304463E+01   1.1538954474E+01   2.6690668334E+01
  2.6970326224E+01   1.1211111864E+01   3.0657620067E+01
  3.0346866387E+01   1.1556939159E+01   3.3930118579E+01
  3.2615763324E-01   1.5574687646E+01   7.1669515774E+00
  3.6782058703E+00   1.5001391703E+01   1.1499260673E+01
  8.1281142888E+00   1.5523198643E+01   1.5286953694E+01
  1.1305053848E+01   1.4885112983E+01   1.8781576502E+01
  1.4716471109E+01   1.5492866980E+01   2.3086269369E+01
  1.8662391892E+01   1.5722077773E+01   2.6962839161E+01
  2.2828236776E+01   1.5116910637E+01   3.0617241141E+01
  2.6949960741E+01   1.5534739761E+01   3.4182282494E+01
  7.0001261331E-02   1.8903499920E+01   1.0940544071E+01
  3.5111496814E+00   1.9416838723E+01   1.5097026672E+01
  8.0239069571E+00   1.8988642505E+01   1.8973305922E+01
  1.1512243446E+01   1.9089026041E+01   2.2635785890E+01
  1.5367912864E+01   1.9346638658E+01   2.6033248742E+01
  1.9079255339E+01   1.9257085948E+01   3.0704180790E+01
  2.3192718320E+01   1.9546065655E+01   3.4649992532E+01
  3.8186725815E+01   2.2752949632E+01   1.5205472504E+01
  3.4300881339E+00   2.2648498773E+01   1.9145458576E+01
  7.3316458010E+00   2.3210759235E+01   2.2811614682E+01
  1.1217843305E+01   2.3350315234E+01   2.6928716295E+01
  1.5330329109E+01   2.3366218440E+01   3.0724349308E+01
  1.8914676855E+01   2.3012977291E+01   3.4473051129E+01
  1.9315772222E-01   2.6995496148E+01   1.8796041763E+01
  3.2965444396E+00   2.7127366829E+01   2.2970504253E+01
  7.5892385465E+00   2.6787266706E+01   2.7147759782E+01
  1.1795561230E+01   2.6878341981E+01   3.0299394181E+01
  1.4960448210E+01   2.6912416002E+01   3.5034386249E+01
  3.8063888788E+01   3.0804461905E+01   2.3416657702E+01
  3.7019585965E+00   3.0689325965E+01   2.6760184170E+01
  7.7186886462E+00   3.0766483708E+01   3.0817816031E+01
  1.1123274926E+01   3.0050025749E+01   3.4791348853E+01
  3.7689310572E+01   3.4805443337E+01   2.6596545691E+01
  3.8912042964E+00   3.4599029525E+01   3.0637514033E+01
  7.9629431720E+00   3.4134556136E+01   3.4144462506E+01
  1.5580983245E+01   3.8061544010E+01   1.9142240094E-01
  1.9202349185E+01   3.8204727734E+01   3.8602956495E+00
  2.2562860328E+01   3.9256626058E-02   7.5817616974E+00
  2.6440975375E+01   3.6823802859E-01   1.1263306496E+01
  3.1025245791E+01   3.8053818343E+01   1.5465022679E+01
  3.4908707628E+01   9.5891452560E-03   1.9193944410E+01
  1.2037327005E+01   3.3529555620E+00   2.0424089088E-01
  1.5347152831E+01   3.4128778851E+00   4.0256364446E+00
  1.9361354250E+01   3.7504690028E+00   7.9805593954E+00
  2.3213668452E+01   3.9125171637E+00   1.1489176271E+01
  2.6711975279E+01   3.5739045865E+00   1.5175841212E+01
  3.0162485900E+01   3.7496463085E+00   1.9103244323E+01
  3.4237196465E+01   4.1950569447E+00   2.2558621408E+01
  7.6530078484E+00   7.8103430815E+00   5.5038049267E-01
  1.2226870534E+01   7.4900278232E+00   3.5434840185E+00
  1.5698289528E+01   7.9502151639E+00   8.1919638381E+00
  1.9240897526E+01   7.4034269161E+00   1.1883538445E+01
  2.3202669600E+01   7.5882891839E+00   1.4792374113E+01
  2.6221448477E+01   7.3843441692E+00   1.8692905075E+01
  3.0328351323E+01   7.9335427368E+00   2.2643825941E+01
  3.4063459559E+01   7.8793488813E+00   2.6456151289E+01
  3.8402685645E+00   1.1594456514E+01   3.8026998305E+01
  6.9668338703E+00   1.1611721303E+01   4.0180192495E+00
  1.1729045457E+01   1.1089361158E+01   8.1962594322E+00
  1.5775241752E+01   1.1552906226E+01   1.1524119409E+01
  1.8957575968E+01   1.1256924994E+01   1.5015682186E+01
  2.2765924119E+01   1.1427532724E+01   1.9199802404E+01
  2.6536957937E+01   1.1587002816E+01   2.2662846977E+01
  3.0029913288E+01   1.1571168228E+01   2.6874430408E+01
  3.4857254884E+01   1.1553281978E+01   3.1187847605E+01
  6.6067146139E-03   1.4999221786E+01   3.7789013826E+01
  3.9235451429E+00   1.5320848322E+01   3.6744014686E+00
  7.7477802111E+00   1.5531211500E+01   7.5010536179E+00
  1.1762007982E+01   1.5170733660E+01   1.1703489386E+01
  1.5628329105E+01   1.5186060829E+01   1.5176167640E+01
  1.9111040751E+01   1.5468848014E+01   1.9116667263E+01
  2.3050372335E+01   1.5444664877E+01   2.2884482723E+01
  2.6595811146E+01   1.5094221569E+01   2.6912010564E+01
  3.1043137606E+01   1.5487257770E+01   3.0688570566E+01
  3.4413852481E+01   1.5162392526E+01   3.4821016824E+01
  1.8543831254E-01   1.9276117743E+01   3.4285087490E+00
  3.7120796233E+00   1.8937244606E+01   7.5765256646E+00
  7.6192411487E+00   1.9464913235E+01   1.1611104685E+01
  1.1343319528E+01   1.9425484773E+01   1.5339459647E+01
  1.5301982727E+01   1.9410399521E+01   1.8904154759E+01
  1.9398709509E+01   1.9163285739E+01   2.2680755900E+01
  2.2794588794E+01   1.9211781370E+01   2.6323479606E+01
  2.6986203843E+01   1.8836746591E+01   3.0249496171E+01
  3.0619636889E+01   1.9026190017E+01   3.4155486102E+01
  3.8134453048E+01   2.3307262755E+01   7.9383255683E+00
  3.7424019535E+00   2.2703572052E+01   1.1597147110E+01
  7.5957079583E+00   2.2989981419E+01   1.5313434778E+01
  1.1055547112E+01   2.3117490397E+01   1.9222784784E+01
  1.5221001533E+01   2.2993069409E+01   2.3133880366E+01
  1.9289929300E+01   2.3137640509E+01   2.6837349125E+01
  2.3411278588E+01   2.3145789779E+01   3.0633754945E+01
  2.6685019956E+01   2.2786987881E+01   3.4075789510E+01
  1.9952984566E-01   2.6230489654E+01   1.1857231289E+01
  3.9351190502E+00   2.7156962259E+01   1.4886192549E+01
  7.9052804119E+00   2.7339119676E+01   1.8945767501E+01
  1.1767400189E+01   2.7009316889E+01   2.2933482986E+01
  1.5507792365E+01   2.6894971674E+01   2.6694803426E+01
  1.9528680419E+01   2.6467169851E+01   3.0495844982E+01
  2.3009544368E+01   2.7066742989E+01   3.4121477917E+01
  3.7961286760E+01   3.0540123111E+01   1.5596652133E+01
  3.9484465238E+00   3.0367838794E+01   1.9036112012E+01
  7.7221850835E+00   3.0230957021E+01   2.3148146513E+01
  1.1779079430E+01   3.1160438799E+01   2.6803112102E+01
  1.5678884817E+01   3.0454806041E+01   3.0718220416E+01
  1.9269286375E+01   3.0508098912E+01   3.4396068903E+01
  2.6055466455E-01   3.4119280086E+01   1.8948030157E+01
  3.6171837623E+00   3.4107978982E+01   2.2908119890E+01
  8.0250915593E+00   3.4814097170E+01   2.6688839207E+01
  1.1292092239E+01   3.4403204744E+01   3.0478885405E+01
  1.5018607271E+01   3.4530128323E+01   3.4269044776E+01
  2.3161134765E+01   1.7494871706E-01   4.6901779745E-01
  2.6564841171E+01   3.1613534386E-01   3.6837432083E+00
  3.0790147161E+01   3.8164816935E+01   7.8831958644E+00
  3.4419377861E+01   5.6558666428E-01   1.1335964943E+01
  1.9135590337E+01   3.8593154007E+00   7.5114083693E-02
  2.3195998928E+01   4.0833804856E+00   3.9408016121E+00
  2.6919684675E+01   3.5296273309E+00   7.3860673612E+00
  3.0509432054E+01   3.9365176284E+00   1.1052098757E+01
  3.4494625354E+01   3.7200144029E+00   1.4939170905E+01
  1.4855671999E+01   7.7444923496E+00   3.7925634045E+01
  1.9191242645E+01   7.3659397922E+00   3.7573869170E+00
  2.2867805131E+01   7.7348479358E+00   8.1180675707E+00
  2.7292140070E+01   8.0884996685E+00   1.1367535788E+01
  3.0806351223E+01   7.5123524036E+00   1.5448090073E+01
  3.3965359118E+01   7.8493452008E+00   1.8813935497E+01
  1.1020819258E+01   1.1331605015E+01   4.6929796083E-02
  1.5324312879E+01   1.1385863614E+01   3.9489474005E+00
  1.9040501378E+01   1.1837040251E+01   7.2892858955E+00
  2.3308664460E+01   1.1708274302E+01   1.1189486670E+01
  2.7123774935E+01   1.1526073010E+01   1.5029065020E+01
  3.0849781255E+01   1.1888358627E+01   1.9322547272E+01
  3.4386067260E+01   1.1470486837E+01   2.3461309873E+01
  7.7614279546E+00   1.5265558875E+01   3.4345387802E-01
  1.1568829195E+01   1.5090375323E+01   3.5518426436E+00
  1.5324374261E+01   1.5323567759E+01   8.0235751767E+00
  1.9642410308E+01   1.5099790578E+01   1.1183690116E+01
  2.2478203118E+01   1.5529713056E+01   1.5329952284E+01
  2.6684902269E+01   1.5327674235E+01   1.9038368633E+01
  2.9987362313E+01   1.5507984296E+01   2.3286612474E+01
  3.4415725581E+01   1.5572738506E+01   2.6747447927E+01
  3.3972140473E+00   1.9560514480E+01   3.7745316976E+01
  7.7540543764E+00   1.9327289964E+01   3.6727242601E+00
  1.1887232947E+01   1.8753012841E+01   7.5464479902E+00
  1.5571441168E+01   1.9122808492E+01   1.1817802793E+01
  1.9326363368E+01   1.9451052500E+01   1.5323587913E+01
  2.3054662584E+01   1.8943555832E+01   1.8987415295E+01
  2.6713977620E+01   1.9574162876E+01   2.2613529296E+01
  3.0748773993E+01   1.9058248813E+01   2.6869008034E+01
  3.4420100046E+01   1.9222886272E+01   3.0846319776E+01
  4.2793226274E-02   2.2962990169E+01   8.6812294861E-02
  3.6159449881E+00   2.2680770702E+01   4.0774403346E+00
  8.1565426708E+00   2.2452898820E+01   7.7505597750E+00
  1.2054770064E+01   2.2533598286E+01   1.1077206620E+01
  1.5047788520E+01   2.3357664172E+01   1.5226390930E+01
  1.9125167797E+01   2.2835100667E+01   1.8852905524E+01
  2.2715462325E+01   2.2990534630E+01   2.2537998796E+01
  2.6866234041E+01   2.2626225853E+01   2.7121219721E+01
  3.1117130947E+01   2.2847517914E+01   3.0745898076E+01
  3.4212553259E+01   2.2492085452E+01   3.4549993680E+01
  3.8089767594E+01   2.7007823362E+01   3.8256262259E+00
  4.2651815182E+00   2.6830877087E+01   7.6720492094E+00
  7.5712986996E+00   2.6583154364E+01   1.1618712751E+01
  1.1640370929E+01   2.6464621493E+01   1.5642223234E+01
  1.5146687913E+01   2.6917793269E+01   1.9295127525E+01
  1.8843823934E+01   2.6556667226E+01   2.2521726390E+01
  2.2728962275E+01   2.6767247658E+01   2.6683430474E+01
  2.6590133642E+01   2.6705768347E+01   2.9859329891E+01
  3.0313231604E+01   2.6806591437E+01   3.4619276121E+01
  3.1221510085E-01   3.0092971667E+01   7.9135801178E+00
  3.9455656638E+00   3.0737594585E+01   1.1238902219E+01
  7.7582288431E+00   3.0652736790E+01   1.4913655344E+01
  1.1445774622E+01   3.0755466887E+01   1.9004185763E+01
  1.5321712324E+01   3.0697096989E+01   2.2638596433E+01
  1.8874481522E+01   3.0380784272E+01   2.6496846428E+01
  2.2968077464E+01   3.0447720659E+01   3.0700522121E+01
  2.6925225517E+01   3.0388617060E+01   3.4406674100E+01
  3.8016820927E+01   3.5001431278E+01   1.1716211100E+01
  3.8513217227E+00   3.3864113015E+01   1.5365872513E+01
  7.6993162792E+00   3.4466894649E+01   1.9172261205E+01
  1.1684168841E+01   3.4247715969E+01   2.2936631589E+01
  1.5562831266E+01   3.4231835204E+01   2.6999144843E+01
  1.9358772018E+01   3.3917947538E+01   3.1018195605E+01
  2.3382873429E+01   3.4514403952E+01   3.4662582863E+01
  3.0947874701E+01   3.8011984351E+01   1.0709400403E-01
  3.4803451571E+01   6.2003137535E-01   3.7948329669E+00
  2.6568014658E+01   3.7987327010E+00   8.1273813712E-02
  3.0874816128E+01   3.7107122711E+00   4.2708091157E+00
  3.4679410371E+01   3.9347060377E+00   7.8248545353E+00
  2.2986262713E+01   7.5800376356E+00   4.0983512292E-01
  2.7145324473E+01   7.5219935950E+00   3.3526976058E+00
  3.0237230020E+01   7.4757310897E+00   7.7303112211E+00
  3.4646716312E+01   7.6814350766E+00   1.1178507083E+01
  1.9077764002E+01   1.1445423436E+01   3.3490460953E-02
  2.2821519450E+01   1.1321192169E+01   3.7309540905E+00
  2.6590039770E+01   1.1218292312E+01   7.2534217551E+00
  3.0820561428E+01   1.1600650272E+01   1.1367021597E+01
  3.4458374164E+01   1.2211863959E+01   1.5613744256E+01
  1.5535293036E+01   1.5610489748E+01   2.5824540552E-01
  1.9026328709E+01   1.5370289514E+01   3.4751314614E+00
  2.2993301336E+01   1.5174162711E+01   7.3568737289E+00
  2.7002897934E+01   1.5624681674E+01   1.1451925134E+01
  3.0736533945E+01   1.5381330476E+01   1.5338338062E+01
  3.4189676187E+01   1.5283604279E+01   1.9511836878E+01
  1.2116017535E+01   1.9174493559E+01   3.8043779639E+01
  1.5369126082E+01   1.9437495677E+01   3.7236285874E+00
  1.9361940065E+01   1.9414114362E+01   7.9532633858E+00
  2.2801586556E+01   1.9171092411E+01   1.1667338208E+01
  2.7474897270E+01   1.9197436471E+01   1.5367482956E+01
  3.0469023665E+01   1.9676751656E+01   1.9486818438E+01
  3.4552762805E+01   1.8805181026E+01   2.3082832588E+01
  7.4771656547E+00   2.3323883572E+01   4.1857321439E-01
  1.1477838347E+01   2.2627093821E+01   4.0681679906E+00
  1.5140398025E+01   2.2652293063E+01   7.3288097552E+00
  1.8874948109E+01   2.2923473654E+01   1.1103049120E+01
  2.3183992283E+01   2.2828246028E+01   1.4879726328E+01
  2.5963815174E+01   2.2955640071E+01   1.8696461685E+01
  3.0640258728E+01   2.2661893095E+01   2.3678310637E+01
  3.4696465851E+01   2.2991617212E+01   2.6664325185E+01
  4.0144116638E+00   2.6528295472E+01   3.7490290100E-01
  7.7101326611E+00   2.6950888668E+01   4.0945440361E+00
  1.1075373578E+01   2.7078498426E+01   7.5908154308E+00
  1.5244046361E+01   2.6824522696E+01   1.1223804758E+01
  1.8910256420E+01   2.6468087463E+01   1.5138982407E+01
  2.3575889884E+01   2.7306638246E+01   1.8877451818E+01
  2.6615188843E+01   2.6434005287E+01   2.3391075996E+01
  3.0523821425E+01   2.7128307045E+01   2.6907746289E+01
  3.4202674201E+01   2.6791093411E+01   3.0486562983E+01
  8.6359871084E-02   3.0325824451E+01   5.1261447873E-02
  3.6574862066E+00   3.0328604695E+01   3.4423943290E+00
  7.1040401952E+00   3.0697255523E+01   7.1411713606E+00
  1.1435586892E+01   3.0312273946E+01   1.1699764410E+01
  1.5260506036E+01   3.0322585940E+01   1.5423877466E+01
  1.9793130886E+01   3.0620487373E+01   1.8561591610E+01
  2.2725083193E+01   3.0515792207E+01   2.3220977102E+01
  2.6320966214E+01   3.0517368225E+01   2.6620306148E+01
  3.0615148101E+01   3.0898151378E+01   3.0439943034E+01
  3.4612443543E+01   3.0562828142E+01   3.5059466912E+01
  1.9390545931E-01   3.4614195052E+01   3.9547603442E+00
  4.0027243448E+00   3.4497433088E+01   7.7075658331E+00
  7.6572193162E+00   3.4447450694E+01   1.2228150361E+01
  1.1822387480E+01   3.4531872585E+01   1.5551501124E+01
  1.5655094537E+01   3.4038603545E+01   1.9237064269E+01
  1.9430638727E+01   3.4920209114E+01   2.2796534192E+01
  2.2365593311E+01   3.3836983641E+01   2.6817065828E+01
  2.7029469427E+01   3.4702655866E+01   3.0583649648E+01
  3.0595281018E+01   3.4562875540E+01   3.4558590328E+01
  3.5048945772E+01   3.7565775089E+00   3.3014978998E-01
  3.0200842446E+01   8.1770229976E+00   3.8143628951E+01
  3.4247697994E+01   7.5158311528E+00   3.6907705410E+00
  2.6512304682E+01   1.1507034775E+01   3.7934823159E+01
  3.0576447502E+01   1.1163538898E+01   3.6195110492E+00
  3.3944801034E+01   1.1686592417E+01   7.4848979334E+00
  2.3091435023E+01   1.4860854554E+01   3.8180478877E+01
  2.7352085799E+01   1.5173844152E+01   4.0889777186E+00
  3.0705147958E+01   1.5385063184E+01   7.9070436908E+00
  3.4597087888E+01   1.5436420263E+01   1.1497847568E+01
  1.9279073385E+01   1.9456967728E+01   4.1462319069E-01
  2.3414864861E+01   1.8957523933E+01   4.1906006734E+00
  2.6749757809E+01   1.9461429658E+01   8.2731524074E+00
  3.0810150476E+01   1.9018337658E+01   1.1155264170E+01
  3.4555155373E+01   1.9258377860E+01   1.4904478823E+01
  1.5137413780E+01   2.2760880226E+01   3.7898242137E+01
  1.8614914921E+01   2.2828413463E+01   3.9352691045E+00
  2.2629754778E+01   2.3209409260E+01   6.8692906043E+00
  2.6206261480E+01   2.3142589543E+01   1.0926727267E+01
  3.0318197073E+01   2.3093280176E+01   1.5030393742E+01
  3.4339784949E+01   2.2848335910E+01   1.9407600713E+01
  1.0990935545E+01   2.6976891190E+01   2.2458002551E-01
  1.5725292227E+01   2.6666007143E+01   3.4772080001E+00
  1.9024290606E+01   2.6634534398E+01   7.6252671404E+00
  2.3063441089E+01   2.6689310476E+01   1.1527543699E+01
  2.6596968459E+01   2.6488935172E+01   1.4905353992E+01
  3.0580416687E+01   2.6639043767E+01   1.9547061682E+01
  3.4229025204E+01   2.6513610101E+01   2.3423863084E+01
  7.4818729845E+00   3.0598971727E+01   4.4454090681E-01
  1.1662592051E+01   3.0730169442E+01   4.0147455766E+00
  1.5078298072E+01   3.1096375908E+01   7.7540742168E+00
  1.9732416992E+01   3.0079377730E+01   1.1566303704E+01
  2.2714201857E+01   3.0692287009E+01   1.5228821934E+01
  2.7109537232E+01   3.0499756591E+01   1.9090419638E+01
  3.0477620300E+01   3.0658686671E+01   2.3470530255E+01
  3.4351035373E+01   3.0252924369E+01   2.6624169144E+01
  3.4351377014E+00   3.4034835855E+01   2.7596084318E-01
  7.8540161238E+00   3.4256436912E+01   3.9260893270E+00
  1.0900857637E+01   3.4762851444E+01   8.0988457102E+00
  1.6124810329E+01   3.4137730108E+01   1.1405620770E+01
  1.9352814331E+01   3.4727495255E+01   1.5482461806E+01
  2.3152108321E+01   3.3912649665E+01   1.9276002242E+01
  2.7049099809E+01   3.3984678637E+01   2.2639931115E+01
  2.9984355456E+01   3.4311966779E+01   2.6893965288E+01
  3.4503040842E+01   3.4294781765E+01   3.0501314210E+01
  3.3993873814E+01   1.1457620144E+01   3.8074540646E+01
  3.0719315439E+01   1.5149249144E+01   2.1199897420E-01
  3.4600452851E+01   1.4556251455E+01   3.7079937354E+00
  2.7161890027E+01   1.8613659986E+01   3.8212982043E+01
  3.0313541796E+01   1.8732398396E+01   3.9732708674E+00
  3.4499226910E+01   1.8962378798E+01   7.4476643327E+00
  2.3288615213E+01   2.2962555129E+01   3.6390816149E-01
  2.6771557297E+01   2.3007631114E+01   3.3288322650E+00
  3.0179075369E+01   2.2808498929E+01   7.8773784631E+00
  3.3910913174E+01   2.2701875882E+01   1.0826262624E+01
  1.9014880768E+01   2.7199479412E+01   3.8241843571E+01
  2.3257878889E+01   2.7072937591E+01   4.2139051887E+00
  2.6342531187E+01   2.7135607527E+01   8.1844535254E+00
  3.0409681020E+01   2.7196209349E+01   1.1178717531E+01
  3.4580182321E+01   2.5983234428E+01   1.5493346461E+01
  1.5084214471E+01   3.0549607293E+01   1.8959358054E-01
  1.9441464579E+01   3.0550965198E+01   3.7119193531E+00
  2.2583168110E+01   3.0684550735E+01   7.1827824025E+00
  2.6805734163E+01   3.0874159185E+01   1.1378783076E+01
  3.0338022326E+01   3.0427515300E+01   1.5248958118E+01
  3.4440275430E+01   3.0505497858E+01   1.8875981724E+01
  1.1223181147E+01   3.4721225178E+01   2.1745285186E-02
  1.5126546954E+01   3.4442164967E+01   3.9503359288E+00
  1.9073424833E+01   3.4518199324E+01   7.3962750480E+00
  2.3333745081E+01   3.4143827330E+01   1.1540029023E+01
  2.6361960609E+01   3.4785327358E+01   1.5403122827E+01
  3.0700364564E+01   3.4385000003E+01   1.9047718386E+01
  3.4709736392E+01   3.4460356483E+01   2.2481032664E+01
  3.4262010865E+01   1.9129003866E+01   3.8199817236E+01
  3.0799001575E+01   2.3133797781E+01   3.7985244791E+01
  3.4270951986E+01   2.2859832335E+01   3.6420371436E+00
  2.6797289074E+01   2.6317145498E+01   3.7669447056E+01
  3.0846111789E+01   2.7341177562E+01   4.3799266969E+00
  3.4406249046E+01   2.6501508445E+01   7.6548223136E+00
  2.3032852415E+01   3.0413980213E+01   3.9106976567E-01
  2.7212942334E+01   3.0542529487E+01   3.8251333531E+00
  3.0457700405E+01   3.0568925938E+01   7.8205286867E+00
  3.4063298538E+01   3.0142573273E+01   1.2046863446E+01
  1.9125425183E+01   3.4459237591E+01   3.7935417307E+01
  2.2637528595E+01   3.4675929006E+01   4.1902488589E+00
  2.6827523043E+01   3.4962610299E+01   7.7482888435E+00
  3.1163117592E+01   3.4507669170E+01   1.1343704185E+01
  3.4216596398E+01   3.4338343926E+01   1.5170025729E+01
  3.4430460730E+01   2.6489607899E+01   3.8008078304E+01
  3.0438699237E+01   3.0657873817E+01   6.9056024697E-01
  3.4790667090E+01   3.1086252751E+01   3.7621440797E+00
  2.7329899028E+01   3.4063767260E+01   5.3497625693E-01
  3.0923079740E+01   3.4813415101E+01   4.2431099200E+00
  3.4729717158E+01   3.4594475098E+01   7.5691278906E+00
  3.4580997238E+01   3.4628767465E+01   4.9770807265E-01
:V(Bohr/atu):
 -1.0411864275E-04   5.3733533334E-04   2.9653597271E-04
  9.7386435638E-05  -7.4342109400E-05   1.0533379794E-04
  5.8217275065E-04  -2.1968836387E-04  -4.8831982634E-04
  1.7215823851E-04   4.0142448926E-04  -4.7266309697E-04
  2.2708403936E-04   2.9515584639E-05  -1.5931642083E-04
  6.6541303740E-05   3.6800186997E-04   6.9096869718E-05
 -2.8019330558E-04  -4.1530094884E-04   1.9415450884E-04
 -2.6170889926E-05   4.0283167047E-04   2.1975366084E-04
 -4.7936102134E-05  -3.4872925738E-04   2.4985131685E-04
 -4.5748888114E-04   2.2777358597E-05  -2.4425597590E-04
  6.4317057648E-05  -1.4708944884E-04  -2.0779988925E-04
 -2.6073496134E-04  -1.8355223421E-04   4.4886635401E-04
  4.3639132715E-04   1.3149998142E-04   1.3961133934E-04
 -1.3208283066E-04   2.9683642316E-04  -4.7022772991E-04
 -6.1228415233E-05   1.4123362226E-04   6.1959348513E-04
 -2.2747315012E-04  -6.8874710658E-04   2.3322313303E-04
 -8.1047426013E-05   1.7245816739E-04   3.3031369720E-04
 -2.9475782197E-04   2.5765798179E-04  -1.7515305631E-04
  3.3000187846E-04  -3.2126692920E-04   2.3579576960E-04
  1.2034466017E-04  -1.1512085286E-04  -1.8910344981E-04
 -3.7178319061E-04  -7.6139205346E-04  -5.5291936805E-05
 -1.6648444820E-04  -4.1191347306E-05  -1.8386989928E-04
  1.7382808728E-04  -2.1687126914E-04  -6.2098645877E-05
 -2.4578304558E-04  -4.0901246894E-04  -4.1095306254E-04
 -3.1002567783E-04   1.0642532962E-04   1.8234551710E-04