
.Version 9.6.2 of ABINIT 
.(MPI version, prepared for a x86_64_linux_gnu10.3 computer) 

.Copyright (C) 1998-2021 ABINIT group . 
 ABINIT comes with ABSOLUTELY NO WARRANTY.
 It is free software, and you are welcome to redistribute it
 under certain conditions (GNU General Public License,
 see ~abinit/COPYING or http://www.gnu.org/copyleft/gpl.txt).

 ABINIT is a project of the Universite Catholique de Louvain,
 Corning Inc. and other collaborators, see ~abinit/doc/developers/contributors.txt .
 Please read https://docs.abinit.org/theory/acknowledgments for suggested
 acknowledgments of the ABINIT effort.
 For more information, see https://www.abinit.org .

.Starting date : Thu 22 Dec 2022.
- ( at 14h26 )
  
- input  file    -> NiC2O4.in
- output file    -> NiC2O4.out
- root for input  files -> abi
- root for output files -> abo


 Symmetries : space group P1 (#  1); Bravais aP (primitive triclinic)
================================================================================
 Values of the parameters that define the memory need of the present run
     intxc =       0    ionmov =       0      iscf =       7    lmnmax =       6
     lnmax =       6     mgfft =     180  mpssoang =       3    mqgrid =    7625
     natom =      14  nloc_mem =       1    nspden =       2   nspinor =       1
    nsppol =       2      nsym =       1    n1xccc =       0    ntypat =       3
    occopt =       3   xclevel =       2
-    mband =          65        mffmem =           1         mkmem =           1
       mpw =       77328          nfft =     1440000          nkpt =           4
================================================================================
P This job should need less than                     982.891 Mbytes of memory.
  Rough estimation (10% accuracy) of disk space for files :
_ WF disk file :   1840.695 Mbytes ; DEN or POT disk file :     21.975 Mbytes.
================================================================================

--------------------------------------------------------------------------------
------------- Echo of variables that govern the present computation ------------
--------------------------------------------------------------------------------
-
- outvars: echo of selected default values                                      
-   iomode0 =  0 , fftalg0 =312 , wfoptalg0 =  0
-
- outvars: echo of global parameters not present in the input file              
-  max_nthreads =    0
-
 -outvars: echo values of preprocessed input variables --------
-          iomode           1
            acell      9.9000000000E-01  9.9000000000E-01  9.9000000000E-01 Bohr
              amu      5.86900000E+01  1.20110000E+01  1.59994000E+01
        autoparal           1
     densfor_pred           6
           diemac      1.00000000E+00
           diemix      4.00000000E-01
             ecut      3.00000000E+02 Hartree
           ecutsm      5.00000000E-01 Hartree
-          fftalg         312
              ixc     -263267
              kpt      2.50000000E-01  2.50000000E-01  2.50000000E-01
                      -2.50000000E-01  2.50000000E-01  2.50000000E-01
                       2.50000000E-01 -2.50000000E-01  2.50000000E-01
                      -2.50000000E-01 -2.50000000E-01  2.50000000E-01
         kptrlatt        2    0    0      0    2    0      0    0    2
          kptrlen      1.90329546E+01
P           mkmem           1
            natom          14
            nband          65
            ngfft         160     150     180
             nkpt           4
-           npfft           3
-        np_spkpt           8
           nspden           2
           nsppol           2
            nstep          60
             nsym           1
           ntypat           3
              occ      1.000000  1.000000  1.000000  1.000000  1.000000  1.000000
                       1.000000  1.000000  1.000000  1.000000  1.000000  1.000000
                       1.000000  1.000000  1.000000  1.000000  1.000000  1.000000
                       1.000000  1.000000  1.000000  1.000000  1.000000  1.000000
                       1.000000  1.000000  1.000000  1.000000  1.000000  1.000000
                       1.000000  1.000000  1.000000  1.000000  1.000000  1.000000
                       1.000000  1.000000  1.000000  1.000000  1.000000  1.000000
                       1.000000  1.000000  1.000000  1.000000  1.000000  1.000000
                       1.000000  1.000000  0.000000  0.000000  0.000000  0.000000
                       0.000000  0.000000  0.000000  0.000000  0.000000  0.000000
                       0.000000  0.000000  0.000000  0.000000  0.000000
                       1.000000  1.000000  1.000000  1.000000  1.000000  1.000000
                       1.000000  1.000000  1.000000  1.000000  1.000000  1.000000
                       1.000000  1.000000  1.000000  1.000000  1.000000  1.000000
                       1.000000  1.000000  1.000000  1.000000  1.000000  1.000000
                       1.000000  1.000000  1.000000  1.000000  1.000000  1.000000
                       1.000000  1.000000  1.000000  1.000000  1.000000  1.000000
                       1.000000  1.000000  1.000000  1.000000  1.000000  1.000000
                       1.000000  1.000000  1.000000  1.000000  1.000000  1.000000
                       1.000000  1.000000  0.000000  0.000000  0.000000  0.000000
                       0.000000  0.000000  0.000000  0.000000  0.000000  0.000000
                       0.000000  0.000000  0.000000  0.000000  0.000000
                       1.000000  1.000000  1.000000  1.000000  1.000000  1.000000
                       1.000000  1.000000  1.000000  1.000000  1.000000  1.000000
                       1.000000  1.000000  1.000000  1.000000  1.000000  1.000000
                       1.000000  1.000000  1.000000  1.000000  1.000000  1.000000
                       1.000000  1.000000  1.000000  1.000000  1.000000  1.000000
                       1.000000  1.000000  1.000000  1.000000  1.000000  1.000000
                       1.000000  1.000000  1.000000  1.000000  1.000000  1.000000
                       1.000000  1.000000  1.000000  1.000000  1.000000  1.000000
                       1.000000  1.000000  0.000000  0.000000  0.000000  0.000000
                       0.000000  0.000000  0.000000  0.000000  0.000000  0.000000
                       0.000000  0.000000  0.000000  0.000000  0.000000
                       1.000000  1.000000  1.000000  1.000000  1.000000  1.000000
                       1.000000  1.000000  1.000000  1.000000  1.000000  1.000000
                       1.000000  1.000000  1.000000  1.000000  1.000000  1.000000
                       1.000000  1.000000  1.000000  1.000000  1.000000  1.000000
                       1.000000  1.000000  1.000000  1.000000  1.000000  1.000000
                       1.000000  1.000000  1.000000  1.000000  1.000000  1.000000
                       1.000000  1.000000  1.000000  1.000000  1.000000  1.000000
                       1.000000  1.000000  1.000000  1.000000  1.000000  1.000000
                       1.000000  1.000000  0.000000  0.000000  0.000000  0.000000
                       0.000000  0.000000  0.000000  0.000000  0.000000  0.000000
                       0.000000  0.000000  0.000000  0.000000  0.000000
                       1.000000  1.000000  1.000000  1.000000  1.000000  1.000000
                       1.000000  1.000000  1.000000  1.000000  1.000000  1.000000
                       1.000000  1.000000  1.000000  1.000000  1.000000  1.000000
                       1.000000  1.000000  1.000000  1.000000  1.000000  1.000000
                       1.000000  1.000000  1.000000  1.000000  1.000000  1.000000
                       1.000000  1.000000  1.000000  1.000000  1.000000  1.000000
                       1.000000  1.000000  1.000000  1.000000  1.000000  1.000000
                       1.000000  1.000000  1.000000  1.000000  1.000000  1.000000
                       1.000000  1.000000  0.000000  0.000000  0.000000  0.000000
                       0.000000  0.000000  0.000000  0.000000  0.000000  0.000000
                       0.000000  0.000000  0.000000  0.000000  0.000000
                       1.000000  1.000000  1.000000  1.000000  1.000000  1.000000
                       1.000000  1.000000  1.000000  1.000000  1.000000  1.000000
                       1.000000  1.000000  1.000000  1.000000  1.000000  1.000000
                       1.000000  1.000000  1.000000  1.000000  1.000000  1.000000
                       1.000000  1.000000  1.000000  1.000000  1.000000  1.000000
                       1.000000  1.000000  1.000000  1.000000  1.000000  1.000000
                       1.000000  1.000000  1.000000  1.000000  1.000000  1.000000
                       1.000000  1.000000  1.000000  1.000000  1.000000  1.000000
                       1.000000  1.000000  0.000000  0.000000  0.000000  0.000000
                       0.000000  0.000000  0.000000  0.000000  0.000000  0.000000
                       0.000000  0.000000  0.000000  0.000000  0.000000
                       1.000000  1.000000  1.000000  1.000000  1.000000  1.000000
                       1.000000  1.000000  1.000000  1.000000  1.000000  1.000000
                       1.000000  1.000000  1.000000  1.000000  1.000000  1.000000
                       1.000000  1.000000  1.000000  1.000000  1.000000  1.000000
                       1.000000  1.000000  1.000000  1.000000  1.000000  1.000000
                       1.000000  1.000000  1.000000  1.000000  1.000000  1.000000
                       1.000000  1.000000  1.000000  1.000000  1.000000  1.000000
                       1.000000  1.000000  1.000000  1.000000  1.000000  1.000000
                       1.000000  1.000000  0.000000  0.000000  0.000000  0.000000
                       0.000000  0.000000  0.000000  0.000000  0.000000  0.000000
                       0.000000  0.000000  0.000000  0.000000  0.000000
                       1.000000  1.000000  1.000000  1.000000  1.000000  1.000000
                       1.000000  1.000000  1.000000  1.000000  1.000000  1.000000
                       1.000000  1.000000  1.000000  1.000000  1.000000  1.000000
                       1.000000  1.000000  1.000000  1.000000  1.000000  1.000000
                       1.000000  1.000000  1.000000  1.000000  1.000000  1.000000
                       1.000000  1.000000  1.000000  1.000000  1.000000  1.000000
                       1.000000  1.000000  1.000000  1.000000  1.000000  1.000000
                       1.000000  1.000000  1.000000  1.000000  1.000000  1.000000
                       1.000000  1.000000  0.000000  0.000000  0.000000  0.000000
                       0.000000  0.000000  0.000000  0.000000  0.000000  0.000000
                       0.000000  0.000000  0.000000  0.000000  0.000000
           occopt           3
           ortalg          -2
        paral_kgb           1
           prtden           0
           prteig           0
          prtkden           1
            prtwf           0
            rprim      0.0000000000E+00  1.0137047334E+01  0.0000000000E+00
                       9.6126033568E+00  0.0000000000E+00  0.0000000000E+00
                       0.0000000000E+00 -5.7455806104E+00 -9.8776109362E+00
           shiftk      5.00000000E-01  5.00000000E-01  5.00000000E-01
          spgroup           1
           spinat      0.0000000000E+00  0.0000000000E+00  1.0000000000E+00
                       0.0000000000E+00  0.0000000000E+00  1.0000000000E+00
                       0.0000000000E+00  0.0000000000E+00  1.0000000000E+00
                       0.0000000000E+00  0.0000000000E+00  1.0000000000E+00
                       0.0000000000E+00  0.0000000000E+00  1.0000000000E+00
                       0.0000000000E+00  0.0000000000E+00  1.0000000000E+00
                       0.0000000000E+00  0.0000000000E+00  1.0000000000E+00
                       0.0000000000E+00  0.0000000000E+00  1.0000000000E+00
                       0.0000000000E+00  0.0000000000E+00  1.0000000000E+00
                       0.0000000000E+00  0.0000000000E+00  1.0000000000E+00
                       0.0000000000E+00  0.0000000000E+00  1.0000000000E+00
                       0.0000000000E+00  0.0000000000E+00  1.0000000000E+00
                       0.0000000000E+00  0.0000000000E+00  1.0000000000E+00
                       0.0000000000E+00  0.0000000000E+00  1.0000000000E+00
           toldfe      1.00000000E-06 Hartree
           tsmear      1.00000000E-03 Hartree
            typat      1  1  2  2  2  2  3  3  3  3  3  3  3  3
          usekden           1
         wfoptalg         114
              wtk        0.25000    0.25000    0.25000    0.25000
           xangst      2.5179514527E+00 -1.5050130030E+00 -2.5873682585E+00
                       0.0000000000E+00  0.0000000000E+00  0.0000000000E+00
                       3.1247122861E+00  1.1791084761E+00 -2.1259318285E+00
                       6.0676083337E-01  2.6265299883E+00 -4.6143642995E-01
                       1.9111906194E+00  1.1215169853E+00 -3.0488046884E+00
                       4.4291420721E+00 -3.2590452692E-01 -4.7133000870E+00
                       1.4732735386E+00  2.2122255456E+00 -3.5113588615E+00
                       3.9912249914E+00 -1.4166130873E+00 -4.2507459140E+00
                       3.5626293669E+00  8.8399915737E-02 -1.6633776555E+00
                       1.0446779141E+00  3.7172385487E+00 -9.2399060299E-01
                       3.6040748478E+00  2.3092071961E+00 -1.8953973167E+00
                       1.0861233950E+00  1.4964312683E+00 -6.9197094178E-01
                       1.4318280577E+00 -8.5817347280E-03 -3.2793392003E+00
                       3.9497795104E+00  8.0419419306E-01 -4.4827655752E+00
            xcart      4.7582386616E+00 -2.8440624022E+00 -4.8894174134E+00
                       0.0000000000E+00  0.0000000000E+00  0.0000000000E+00
                       5.9048504648E+00  2.2281921008E+00 -4.0174289331E+00
                       1.1466118032E+00  4.9634223577E+00 -8.7198848035E-01
                       3.6116268584E+00  2.1193599555E+00 -5.7614058938E+00
                       8.3698655200E+00 -6.1587030135E-01 -8.9068463465E+00
                       2.7840835068E+00  4.1805004254E+00 -6.6355066025E+00
                       7.5423221684E+00 -2.6770107712E+00 -8.0327456379E+00
                       6.7323938164E+00  1.6705163091E-01 -3.1433282244E+00
                       1.9741551548E+00  7.0245628276E+00 -1.7460891890E+00
                       6.8107144248E+00  4.3637691847E+00 -3.5817818416E+00
                       2.0524757632E+00  2.8278452738E+00 -1.3076355719E+00
                       2.7057628984E+00 -1.6217128381E-02 -6.1970529853E+00
                       7.4640015600E+00  1.5197067825E+00 -8.4711992550E+00
             xred     -5.9938125571E-17  5.0000000000E-01  5.0000000000E-01
                       0.0000000000E+00  0.0000000000E+00  0.0000000000E+00
                       4.5488100000E-01  6.2048700000E-01  4.1082900000E-01
                       5.4511900000E-01  1.2048700000E-01  8.9171000000E-02
                       5.4511900000E-01  3.7951300000E-01  5.8917100000E-01
                       4.5488100000E-01  8.7951300000E-01  9.1082900000E-01
                       8.0116400000E-01  2.9255400000E-01  6.7855800000E-01
                       1.9883600000E-01  7.9255400000E-01  8.2144200000E-01
                       1.9883600000E-01  7.0744600000E-01  3.2144200000E-01
                       8.0116400000E-01  2.0744600000E-01  1.7855800000E-01
                       6.4242900000E-01  7.1567600000E-01  3.6627900000E-01
                       3.5757100000E-01  2.1567600000E-01  1.3372100000E-01
                       3.5757100000E-01  2.8432400000E-01  6.3372100000E-01
                       6.4242900000E-01  7.8432400000E-01  8.6627900000E-01
            znucl       28.00000    6.00000    8.00000

================================================================================

 chkinp: Checking input parameters for consistency.

================================================================================
== DATASET  1 ==================================================================
-   mpi_nproc: 24, omp_nthreads: -1 (-1 if OMP is not activated)


--- !DatasetInfo
iteration_state: {dtset: 1, }
dimensions: {natom: 14, nkpt: 4, mband: 65, nsppol: 2, nspinor: 1, nspden: 2, mpw: 77328, }
cutoff_energies: {ecut: 300.0, pawecutdg:  -1.0, }
electrons: {nelect:   1.00000000E+02, charge:   0.00000000E+00, occopt:   3.00000000E+00, tsmear:   1.00000000E-03, }
meta: {optdriver: 0, ionmov: 0, optcell: 0, iscf: 7, paral_kgb: 1, }
...

 Real(R)+Recip(G) space primitive vectors, cartesian coordinates (Bohr,Bohr^-1):
 R(1)=  0.0000000 10.0356769  0.0000000  G(1)=  0.0000000  0.0996445 -0.0579609
 R(2)=  9.5164773  0.0000000  0.0000000  G(2)=  0.1050809  0.0000000  0.0000000
 R(3)=  0.0000000 -5.6881248 -9.7788348  G(3)=  0.0000000  0.0000000 -0.1022617
 Unit cell volume ucvol=  9.3392069E+02 bohr^3
 Angles (23,13,12)=  9.00000000E+01  1.20185586E+02  9.00000000E+01 degrees

 getcut: wavevector=  0.0000  0.0000  0.0000  ngfft= 160 150 180
         ecut(hartree)=    300.000   => boxcut(ratio)=   2.02157

--- Pseudopotential description ------------------------------------------------
- pspini: atom type   1  psp file is ../Ni.pot
- pspatm: opening atomic psp file    ../Ni.pot
- Ni    ONCVPSP-4.0.1  r_core=   2.18101   2.18101   2.24723
- 28.00000  18.00000    200312                znucl, zion, pspdat
    8   11    2    4       600   0.00000      pspcod,pspxc,lmax,lloc,mmax,r2well
    5.99000000000000    0.00000000000000    0.00000000000000   rchrg,fchrg,qchrg
     nproj     2     2     2
     extension_switch     1
  pspatm : epsatm=   38.47316822
         --- l  ekb(1:nproj) -->
             0   -3.440917   -0.196078
             1   -5.406223   -1.725842
             2   -7.274254   -2.503385
 pspatm: atomic psp has been read  and splines computed

- pspini: atom type   2  psp file is ../C.pot
- pspatm: opening atomic psp file    ../C.pot
- C     ONCVPSP-4.0.1  r_core=   1.42727   1.38521
-  6.00000   4.00000    200312                znucl, zion, pspdat
    8   11    1    4       600   0.00000      pspcod,pspxc,lmax,lloc,mmax,r2well
    5.99000000000000    0.00000000000000    0.00000000000000   rchrg,fchrg,qchrg
     nproj     2     2
     extension_switch     1
  pspatm : epsatm=    2.26998732
         --- l  ekb(1:nproj) -->
             0    7.571912    0.889574
             1   -3.169338   -0.856835
 pspatm: atomic psp has been read  and splines computed

- pspini: atom type   3  psp file is ../O.pot
- pspatm: opening atomic psp file    ../O.pot
- O     ONCVPSP-4.0.1  r_core=   1.28926   1.47061
-  8.00000   6.00000    200312                znucl, zion, pspdat
    8   11    1    4       600   0.00000      pspcod,pspxc,lmax,lloc,mmax,r2well
    5.99000000000000    0.00000000000000    0.00000000000000   rchrg,fchrg,qchrg
     nproj     2     2
     extension_switch     1
  pspatm : epsatm=    3.44365635
         --- l  ekb(1:nproj) -->
             0    9.802940    1.339963
             1   -3.661294   -1.085684
 pspatm: atomic psp has been read  and splines computed

   1.13575537E+04                                ecore*ucvol(ha*bohr**3)
--------------------------------------------------------------------------------

_setup2: Arith. and geom. avg. npw (full set) are   77320.500   77320.500

================================================================================

--- !BeginCycle
iteration_state: {dtset: 1, }
solver: {iscf: 7, nstep: 60, nline: 4, wfoptalg: 114, }
tolerances: {toldfe: 1.00E-06, }
...

     iter   Etot(hartree)     deltaE(h) residm    vres2    magn
 ETOT  1  -456.62675975286    -4.57E+02 1.20E-02 4.33E+05 2.005
 ETOT  2  -455.68094657530     9.46E-01 7.43E-04 1.18E+06 4.000
 ETOT  3  -457.88138372335    -2.20E+00 3.97E-03 3.14E+05 2.956
 ETOT  4  -458.70182749396    -8.20E-01 6.03E-04 1.92E+05 2.295
 ETOT  5  -458.74298708837    -4.12E-02 1.94E-04 1.79E+05 2.069
 ETOT  6  -458.77732942317    -3.43E-02 4.21E-04 1.54E+05 2.260
 ETOT  7  -458.97594013875    -1.99E-01 1.09E-04 9.31E+04 3.561
 ETOT  8  -459.02813644712    -5.22E-02 8.21E-05 7.96E+04 3.983
 ETOT  9  -459.03844809557    -1.03E-02 6.27E-05 7.05E+04 3.999
 ETOT 10  -459.12446701185    -8.60E-02 2.44E-04 2.28E+04 4.000
 ETOT 11  -459.13561159318    -1.11E-02 3.55E-05 1.38E+04 4.000
 ETOT 12  -459.13804951802    -2.44E-03 2.11E-05 6.82E+03 4.000
 ETOT 13  -459.13922366729    -1.17E-03 2.43E-05 1.84E+03 4.000
 ETOT 14  -459.13767012540     1.55E-03 8.32E-05 1.39E+03 4.000
 ETOT 15  -459.14091110892    -3.24E-03 2.40E-05 9.53E+02 4.000
 ETOT 16  -459.14070332107     2.08E-04 1.95E-05 8.47E+02 4.000
 ETOT 17  -459.14158348351    -8.80E-04 1.96E-05 3.80E+02 4.000
 ETOT 18  -459.14130741025     2.76E-04 1.60E-05 1.25E+02 4.000
 ETOT 19  -459.14160840207    -3.01E-04 1.42E-05 3.57E+01 4.000
 ETOT 20  -459.14163129497    -2.29E-05 5.24E-06 1.01E+01 4.000
 ETOT 21  -459.14165640641    -2.51E-05 9.92E-06 5.16E+00 4.000
 ETOT 22  -459.14165616596     2.40E-07 3.27E-06 2.54E+00 4.000
 ETOT 23  -459.14165746116    -1.30E-06 6.67E-06 1.07E+00 4.000
 ETOT 24  -459.14165765212    -1.91E-07 2.25E-06 5.89E-01 4.000
 ETOT 25  -459.14165804225    -3.90E-07 4.23E-06 4.56E-01 4.000

 At SCF step   25, etot is converged : 
  for the second time, diff in etot=  3.901E-07 < toldfe=  1.000E-06

Result for kinetic energy density :

--------------------------------------------------------------------------------
 Total kinetic energy density [Ha/Bohr^3]
      Maximum=    1.9611E+01  at reduced coord.    0.0063    0.5133    0.1778
      Minimum=    1.0848E-03  at reduced coord.    0.0000    0.5000    0.0000
   Integrated=    2.3749E+02
 Spin up density      [Ha/Bohr^3]
      Maximum=    1.0258E+01  at reduced coord.    0.0125    0.5267    0.1722
      Minimum=    5.3757E-04  at reduced coord.    0.0000    0.5000    0.0000
   Integrated=    1.2889E+02
 Spin down density    [Ha/Bohr^3]
      Maximum=    9.8389E+00  at reduced coord.    0.0000    0.5000    0.1667
      Minimum=    5.4724E-04  at reduced coord.    0.0000    0.5000    0.0000
   Integrated=    1.0860E+02
 Magnetization (spin up - spin down) [Ha/Bohr^3]
      Maximum=    3.0362E+00  at reduced coord.    0.9750    0.9800    0.0278
      Minimum=   -2.1942E-01  at reduced coord.    0.0000    0.0000    0.0000
   Integrated=    2.0287E+01
 Relative magnetization (=zeta, between -1 and 1)
      Maximum=    3.1999E-01  at reduced coord.    0.0875    0.8867    0.1333
      Minimum=   -2.0200E-02  at reduced coord.    0.8125    0.6067    0.2167
--------------------------------------------------------------------------------

 Cartesian components of stress tensor (hartree/bohr^3)
  sigma(1 1)=  1.33511207E-02  sigma(3 2)=  3.56042729E-05
  sigma(2 2)=  1.30357446E-02  sigma(3 1)= -9.16864337E-08
  sigma(3 3)=  1.33627844E-02  sigma(2 1)=  1.81032740E-08


--- !ResultsGS
iteration_state: {dtset: 1, }
comment   : Summary of ground state results
lattice_vectors:
- [  0.0000000,  10.0356769,   0.0000000, ]
- [  9.5164773,   0.0000000,   0.0000000, ]
- [  0.0000000,  -5.6881248,  -9.7788348, ]
lattice_lengths: [  10.03568,    9.51648,   11.31284, ]
lattice_angles: [ 90.000, 120.186,  90.000, ] # degrees, (23, 13, 12)
lattice_volume:   9.3392069E+02
convergence: {deltae: -3.901E-07, res2:  4.563E-01, residm:  4.228E-06, diffor: null, }
etotal    :  -4.59141658E+02
entropy   :   0.00000000E+00
fermie    :   1.12112326E-01
cartesian_stress_tensor: # hartree/bohr^3
- [  1.33511207E-02,   1.81032740E-08,  -9.16864337E-08, ]
- [  1.81032740E-08,   1.30357446E-02,   3.56042729E-05, ]
- [ -9.16864337E-08,   3.56042729E-05,   1.33627844E-02, ]
pressure_GPa:  -3.8982E+02
xred      :
- [ -5.9938E-17,   5.0000E-01,   5.0000E-01, Ni]
- [  0.0000E+00,   0.0000E+00,   0.0000E+00, Ni]
- [  4.5488E-01,   6.2049E-01,   4.1083E-01,  C]
- [  5.4512E-01,   1.2049E-01,   8.9171E-02,  C]
- [  5.4512E-01,   3.7951E-01,   5.8917E-01,  C]
- [  4.5488E-01,   8.7951E-01,   9.1083E-01,  C]
- [  8.0116E-01,   2.9255E-01,   6.7856E-01,  O]
- [  1.9884E-01,   7.9255E-01,   8.2144E-01,  O]
- [  1.9884E-01,   7.0745E-01,   3.2144E-01,  O]
- [  8.0116E-01,   2.0745E-01,   1.7856E-01,  O]
- [  6.4243E-01,   7.1568E-01,   3.6628E-01,  O]
- [  3.5757E-01,   2.1568E-01,   1.3372E-01,  O]
- [  3.5757E-01,   2.8432E-01,   6.3372E-01,  O]
- [  6.4243E-01,   7.8432E-01,   8.6628E-01,  O]
cartesian_forces: # hartree/bohr
- [ -2.39868134E-06,   6.27964754E-07,  -2.01974456E-06, ]
- [  1.72432307E-06,   2.14910307E-06,   6.33591063E-07, ]
- [  1.40524289E-03,   4.40762468E-03,   9.32975673E-04, ]
- [  1.40699484E-03,  -4.41006868E-03,  -9.33655117E-04, ]
- [ -1.40543018E-03,  -4.40689724E-03,  -9.33362751E-04, ]
- [ -1.40775321E-03,   4.41254444E-03,   9.34082751E-04, ]
- [ -8.06217772E-05,   2.63147751E-03,  -1.05386688E-03, ]
- [ -9.58550342E-05,  -2.62921002E-03,   1.06829260E-03, ]
- [  8.08690872E-05,  -2.63238927E-03,   1.05435901E-03, ]
- [  9.56442408E-05,   2.62903505E-03,  -1.06792924E-03, ]
- [ -4.86770750E-04,  -7.47367330E-04,  -3.89687820E-04, ]
- [ -4.91728196E-04,   7.53475647E-04,   3.95250924E-04, ]
- [  4.86646143E-04,   7.46052374E-04,   3.89882272E-04, ]
- [  4.93436308E-04,  -7.57054234E-04,  -3.94955268E-04, ]
force_length_stats: {min:   2.82725515E-06, max:   4.72491567E-03, mean:   2.43981964E-03, }
...

 Integrated electronic and magnetization densities in atomic spheres:
 ---------------------------------------------------------------------
 Radius=ratsph(iatom), smearing ratsm=  0.0000. Diff(up-dn)=approximate z local magnetic moment.
 Atom    Radius    up_density   dn_density  Total(up+dn)  Diff(up-dn)
    1   2.00000     8.896488     7.179912     16.076399     1.716576
    2   2.00000     8.896450     7.179798     16.076247     1.716652
    3   2.00000     2.837392     2.817128      5.654520     0.020265
    4   2.00000     2.837389     2.817108      5.654497     0.020281
    5   2.00000     2.837388     2.817123      5.654511     0.020265
    6   2.00000     2.837403     2.817107      5.654510     0.020296
    7   2.00000     3.341606     3.251000      6.592605     0.090606
    8   2.00000     3.341606     3.251014      6.592620     0.090592
    9   2.00000     3.341604     3.250998      6.592602     0.090606
   10   2.00000     3.341607     3.251012      6.592619     0.090595
   11   2.00000     3.346774     3.296560      6.643334     0.050214
   12   2.00000     3.346768     3.296573      6.643340     0.050195
   13   2.00000     3.346778     3.296563      6.643341     0.050215
   14   2.00000     3.346759     3.296573      6.643332     0.050187
 ---------------------------------------------------------------------
  Sum:             55.896012    51.818466    107.714477     4.077546
 Total magnetization (from the atomic spheres):             4.077546
 Total magnetization (exact up - dn):                       4.000000
================================================================================

 ----iterations are completed or convergence reached----

 Mean square residual over all n,k,spin=   17.040E-09; max=  42.282E-07
 reduced coordinates (array xred) for   14 atoms
      -0.000000000000      0.500000000000      0.500000000000
       0.000000000000      0.000000000000      0.000000000000
       0.454881000000      0.620487000000      0.410829000000
       0.545119000000      0.120487000000      0.089171000000
       0.545119000000      0.379513000000      0.589171000000
       0.454881000000      0.879513000000      0.910829000000
       0.801164000000      0.292554000000      0.678558000000
       0.198836000000      0.792554000000      0.821442000000
       0.198836000000      0.707446000000      0.321442000000
       0.801164000000      0.207446000000      0.178558000000
       0.642429000000      0.715676000000      0.366279000000
       0.357571000000      0.215676000000      0.133721000000
       0.357571000000      0.284324000000      0.633721000000
       0.642429000000      0.784324000000      0.866279000000
 rms dE/dt=  1.9929E-02; max dE/dt=  4.4256E-02; dE/dt below (all hartree)
    1      -0.000007966031      0.000022819769     -0.000017461918
    2      -0.000023231684     -0.000016416709      0.000017137038
    3      -0.044235161033     -0.013372969283      0.034193251184
    4       0.044256360177     -0.013389641700     -0.034216363303
    5       0.044224532703      0.013374737207     -0.034195464802
    6      -0.044284534099      0.013396844251      0.034232061294
    7      -0.026410321936      0.000767228087      0.004661299192
    8       0.026384238219      0.000912195031     -0.004509900934
    9       0.026416144102     -0.000769596062     -0.004664239204
   10      -0.026385810224     -0.000910203476      0.004509892743
   11       0.007498673036      0.004632335574     -0.008063094584
   12      -0.007563302099      0.004679512999      0.008149673905
   13      -0.007488804528     -0.004631164212      0.008054950241
   14       0.007595887676     -0.004695782662     -0.008169704408

 cartesian coordinates (angstrom) at end:
    1      2.51795145274766    -1.50501300302969    -2.58736825847289
    2      0.00000000000000     0.00000000000000     0.00000000000000
    3      3.12471228612207     1.17910847610957    -2.12593182852032
    4      0.60676083337442     2.62652998828395    -0.46143642995257
    5      1.91119061937324     1.12151698525427    -3.04880468842546
    6      4.42914207212090    -0.32590452692012    -4.71330008699320
    7      1.47327353861428     2.21222554562701    -3.51135886146569
    8      3.99122499136194    -1.41661308729286    -4.25074591395297
    9      3.56262936688104     0.08839991573682    -1.66337765548008
   10      1.04467791413338     3.71723854865670    -0.92399060299280
   11      3.60407484779327     2.30920719609181    -1.89539731669038
   12      1.08612339504561     1.49643126830172    -0.69197094178251
   13      1.43182805770205    -0.00858173472797    -3.27933920025539
   14      3.94977951044971     0.80419419306212    -4.48276557516327

 cartesian forces (hartree/bohr) at end:
    1     -0.00000239868134     0.00000062796475    -0.00000201974456
    2      0.00000172432307     0.00000214910307     0.00000063359106
    3      0.00140524288572     0.00440762468411     0.00093297567277
    4      0.00140699483827    -0.00441006867516    -0.00093365511676
    5     -0.00140543017971    -0.00440689724246    -0.00093336275105
    6     -0.00140775320780     0.00441254443857     0.00093408275072
    7     -0.00008062177723     0.00263147750999    -0.00105386688456
    8     -0.00009585503416    -0.00262921002397     0.00106829260497
    9      0.00008086908718    -0.00263238926970     0.00105435900994
   10      0.00009564424077     0.00262903505267    -0.00106792923954
   11     -0.00048677074972    -0.00074736732962    -0.00038968782012
   12     -0.00049172819602     0.00075347564733     0.00039525092358
   13      0.00048664614305     0.00074605237415     0.00038988227176
   14      0.00049343630793    -0.00075705423373    -0.00039495526822
 frms,max,avg= 1.7266097E-03 4.4125444E-03   7.595E-10  1.658E-07 -2.277E-07 h/b

 cartesian forces (eV/Angstrom) at end:
    1     -0.00012334514353     0.00003229124327    -0.00010385943237
    2      0.00008866824966     0.00011051131395     0.00003258055969
    3      0.07226048846992     0.22664915503388     0.04797553400219
    4      0.07235057748441    -0.22677483009617    -0.04801047241358
    5     -0.07227011951318    -0.22661174848336    -0.04799543836597
    6     -0.07238957441047     0.22690213895845     0.04803246223454
    7     -0.00414573812348     0.13531600280776    -0.05419200953409
    8     -0.00492906362376    -0.13519940399815     0.05493380984054
    9      0.00415845531107    -0.13536288737328     0.05421731563626
   10      0.00491822419309     0.13519040661275    -0.05491512484033
   11     -0.02503075625226    -0.03843117005158    -0.02003855171165
   12     -0.02528567836895     0.03874527235101     0.02032461796914
   13      0.02502434871992     0.03836355232822     0.02004855081590
   14      0.02537351300756    -0.03892929064674    -0.02030941476027
 frms,max,avg= 8.8785833E-02 2.2690214E-01   3.905E-08  8.526E-06 -1.171E-05 e/A
 length scales=  0.990000000000  0.990000000000  0.990000000000 bohr
              =  0.523885436504  0.523885436504  0.523885436504 angstroms
 Fermi (or HOMO) energy (hartree) =   0.11211   Average Vxc (hartree)=  -0.41272
 Magnetization (Bohr magneton)=  4.00000000E+00
 Total spin up =  5.20000000E+01   Total spin down =  4.80000000E+01
 Eigenvalues (hartree) for nkpt=   4  k points, SPIN UP:
 kpt#   1, nband= 65, wtk=  0.25000, kpt=  0.2500  0.2500  0.2500 (reduced coord)
  -3.85189   -3.85183   -2.37753   -2.37747   -2.37650   -2.37644   -2.37074   -2.37069
  -0.78878   -0.77958   -0.75229   -0.75104   -0.70170   -0.69773   -0.67707   -0.67579
  -0.34734   -0.32801   -0.22925   -0.22198   -0.21232   -0.21025   -0.18084   -0.17194
  -0.16120   -0.15172   -0.13769   -0.12643   -0.09979   -0.08320   -0.07520   -0.07205
  -0.05673   -0.05323   -0.04350   -0.02881   -0.02569   -0.01382   -0.00972   -0.00303
   0.01369    0.01732    0.01781    0.02596    0.02886    0.03773    0.04379    0.04957
   0.05124    0.06213    0.07670    0.08347    0.22549    0.24061    0.35861    0.37372
   0.37953    0.41092    0.45462    0.46034    0.48792    0.51261    0.53672    0.54652
   0.56897
      occupation numbers for kpt#   1
   1.00000    1.00000    1.00000    1.00000    1.00000    1.00000    1.00000    1.00000
   1.00000    1.00000    1.00000    1.00000    1.00000    1.00000    1.00000    1.00000
   1.00000    1.00000    1.00000    1.00000    1.00000    1.00000    1.00000    1.00000
   1.00000    1.00000    1.00000    1.00000    1.00000    1.00000    1.00000    1.00000
   1.00000    1.00000    1.00000    1.00000    1.00000    1.00000    1.00000    1.00000
   1.00000    1.00000    1.00000    1.00000    1.00000    1.00000    1.00000    1.00000
   1.00000    1.00000    1.00000    1.00000    0.00000    0.00000    0.00000    0.00000
   0.00000    0.00000    0.00000    0.00000    0.00000    0.00000    0.00000    0.00000
   0.00000
 prteigrs : prtvol=0 or 1, do not print more k-points.

 Eigenvalues (hartree) for nkpt=   4  k points, SPIN DOWN:
 kpt#   1, nband= 65, wtk=  0.25000, kpt=  0.2500  0.2500  0.2500 (reduced coord)
  -3.77159   -3.77153   -2.26227   -2.26221   -2.26094   -2.26089   -2.25866   -2.25862
  -0.78516   -0.77580   -0.74800   -0.74673   -0.69703   -0.69273   -0.67175   -0.67059
  -0.34471   -0.32520   -0.22262   -0.21430   -0.20521   -0.20315   -0.17525   -0.16463
  -0.15733   -0.14193   -0.13085   -0.11861   -0.09696   -0.07169   -0.05316   -0.04427
  -0.02991   -0.02569   -0.01965   -0.01174    0.00449    0.00600    0.01275    0.01982
   0.02559    0.03799    0.05751    0.06392    0.06709    0.06996    0.07260    0.07627
   0.19376    0.20209    0.21385    0.22200    0.23128    0.24378    0.35942    0.37870
   0.38753    0.42135    0.46008    0.46730    0.49398    0.51873    0.54075    0.55087
   0.57260
      occupation numbers for kpt#   1
   1.00000    1.00000    1.00000    1.00000    1.00000    1.00000    1.00000    1.00000
   1.00000    1.00000    1.00000    1.00000    1.00000    1.00000    1.00000    1.00000
   1.00000    1.00000    1.00000    1.00000    1.00000    1.00000    1.00000    1.00000
   1.00000    1.00000    1.00000    1.00000    1.00000    1.00000    1.00000    1.00000
   1.00000    1.00000    1.00000    1.00000    1.00000    1.00000    1.00000    1.00000
   1.00000    1.00000    1.00000    1.00000    1.00000    1.00000    1.00000    1.00000
   0.00000    0.00000    0.00000    0.00000    0.00000    0.00000    0.00000    0.00000
   0.00000    0.00000    0.00000    0.00000    0.00000    0.00000    0.00000    0.00000
   0.00000
 prteigrs : prtvol=0 or 1, do not print more k-points.


--- !EnergyTerms
iteration_state     : {dtset: 1, }
comment             : Components of total free energy in Hartree
kinetic             :  2.37494221680322E+02
hartree             :  1.67164506852867E+02
xc                  : -6.55336167106199E+01
Ewald energy        : -2.68756963183472E+02
psp_core            :  1.21611543475216E+01
local_psp           : -4.31259613718142E+02
non_local_psp       : -1.10411347310727E+02
internal            : -4.59141658042250E+02
'-kT*entropy'       : -2.05321847392548E-15
total_energy        : -4.59141658042250E+02
total_energy_eV     : -1.24938799031045E+04
band_energy         : -5.94439541580584E+01
...


 Cartesian components of stress tensor (hartree/bohr^3)
  sigma(1 1)=  1.33511207E-02  sigma(3 2)=  3.56042729E-05
  sigma(2 2)=  1.30357446E-02  sigma(3 1)= -9.16864337E-08
  sigma(3 3)=  1.33627844E-02  sigma(2 1)=  1.81032740E-08

-Cartesian components of stress tensor (GPa)         [Pressure= -3.8982E+02 GPa]
- sigma(1 1)=  3.92803467E+02  sigma(3 2)=  1.04751370E+00
- sigma(2 2)=  3.83524782E+02  sigma(3 1)= -2.69750756E-03
- sigma(3 3)=  3.93146625E+02  sigma(2 1)=  5.32616619E-04

== END DATASET(S) ==============================================================
================================================================================
  
 -outvars: echo values of variables after computation  --------
-          iomode           1
            acell      9.9000000000E-01  9.9000000000E-01  9.9000000000E-01 Bohr
              amu      5.86900000E+01  1.20110000E+01  1.59994000E+01
        autoparal           1
     densfor_pred           6
           diemac      1.00000000E+00
           diemix      4.00000000E-01
             ecut      3.00000000E+02 Hartree
           ecutsm      5.00000000E-01 Hartree
           etotal     -4.5914165804E+02
            fcart     -2.3986813417E-06  6.2796475417E-07 -2.0197445595E-06
                       1.7243230659E-06  2.1491030715E-06  6.3359106312E-07
                       1.4052428857E-03  4.4076246841E-03  9.3297567277E-04
                       1.4069948383E-03 -4.4100686752E-03 -9.3365511676E-04
                      -1.4054301797E-03 -4.4068972425E-03 -9.3336275105E-04
                      -1.4077532078E-03  4.4125444386E-03  9.3408275072E-04
                      -8.0621777232E-05  2.6314775100E-03 -1.0538668846E-03
                      -9.5855034158E-05 -2.6292100240E-03  1.0682926050E-03
                       8.0869087176E-05 -2.6323892697E-03  1.0543590099E-03
                       9.5644240775E-05  2.6290350527E-03 -1.0679292395E-03
                      -4.8677074972E-04 -7.4736732962E-04 -3.8968782012E-04
                      -4.9172819602E-04  7.5347564733E-04  3.9525092358E-04
                       4.8664614305E-04  7.4605237415E-04  3.8988227176E-04
                       4.9343630793E-04 -7.5705423373E-04 -3.9495526822E-04
-          fftalg         312
              ixc     -263267
              kpt      2.50000000E-01  2.50000000E-01  2.50000000E-01
                      -2.50000000E-01  2.50000000E-01  2.50000000E-01
                       2.50000000E-01 -2.50000000E-01  2.50000000E-01
                      -2.50000000E-01 -2.50000000E-01  2.50000000E-01
         kptrlatt        2    0    0      0    2    0      0    0    2
          kptrlen      1.90329546E+01
P           mkmem           1
            natom          14
            nband          65
            ngfft         160     150     180
             nkpt           4
-           npfft           3
-        np_spkpt           8
           nspden           2
           nsppol           2
            nstep          60
             nsym           1
           ntypat           3
              occ      1.000000  1.000000  1.000000  1.000000  1.000000  1.000000
                       1.000000  1.000000  1.000000  1.000000  1.000000  1.000000
                       1.000000  1.000000  1.000000  1.000000  1.000000  1.000000
                       1.000000  1.000000  1.000000  1.000000  1.000000  1.000000
                       1.000000  1.000000  1.000000  1.000000  1.000000  1.000000
                       1.000000  1.000000  1.000000  1.000000  1.000000  1.000000
                       1.000000  1.000000  1.000000  1.000000  1.000000  1.000000
                       1.000000  1.000000  1.000000  1.000000  1.000000  1.000000
                       1.000000  1.000000  1.000000  1.000000  0.000000  0.000000
                       0.000000  0.000000  0.000000  0.000000  0.000000  0.000000
                       0.000000  0.000000  0.000000  0.000000  0.000000
                       1.000000  1.000000  1.000000  1.000000  1.000000  1.000000
                       1.000000  1.000000  1.000000  1.000000  1.000000  1.000000
                       1.000000  1.000000  1.000000  1.000000  1.000000  1.000000
                       1.000000  1.000000  1.000000  1.000000  1.000000  1.000000
                       1.000000  1.000000  1.000000  1.000000  1.000000  1.000000
                       1.000000  1.000000  1.000000  1.000000  1.000000  1.000000
                       1.000000  1.000000  1.000000  1.000000  1.000000  1.000000
                       1.000000  1.000000  1.000000  1.000000  1.000000  1.000000
                       1.000000  1.000000  1.000000  1.000000  0.000000  0.000000
                       0.000000  0.000000  0.000000  0.000000  0.000000  0.000000
                       0.000000  0.000000  0.000000  0.000000  0.000000
                       1.000000  1.000000  1.000000  1.000000  1.000000  1.000000
                       1.000000  1.000000  1.000000  1.000000  1.000000  1.000000
                       1.000000  1.000000  1.000000  1.000000  1.000000  1.000000
                       1.000000  1.000000  1.000000  1.000000  1.000000  1.000000
                       1.000000  1.000000  1.000000  1.000000  1.000000  1.000000
                       1.000000  1.000000  1.000000  1.000000  1.000000  1.000000
                       1.000000  1.000000  1.000000  1.000000  1.000000  1.000000
                       1.000000  1.000000  1.000000  1.000000  1.000000  1.000000
                       1.000000  1.000000  1.000000  1.000000  0.000000  0.000000
                       0.000000  0.000000  0.000000  0.000000  0.000000  0.000000
                       0.000000  0.000000  0.000000  0.000000  0.000000
                       1.000000  1.000000  1.000000  1.000000  1.000000  1.000000
                       1.000000  1.000000  1.000000  1.000000  1.000000  1.000000
                       1.000000  1.000000  1.000000  1.000000  1.000000  1.000000
                       1.000000  1.000000  1.000000  1.000000  1.000000  1.000000
                       1.000000  1.000000  1.000000  1.000000  1.000000  1.000000
                       1.000000  1.000000  1.000000  1.000000  1.000000  1.000000
                       1.000000  1.000000  1.000000  1.000000  1.000000  1.000000
                       1.000000  1.000000  1.000000  1.000000  1.000000  1.000000
                       1.000000  1.000000  1.000000  1.000000  0.000000  0.000000
                       0.000000  0.000000  0.000000  0.000000  0.000000  0.000000
                       0.000000  0.000000  0.000000  0.000000  0.000000
                       1.000000  1.000000  1.000000  1.000000  1.000000  1.000000
                       1.000000  1.000000  1.000000  1.000000  1.000000  1.000000
                       1.000000  1.000000  1.000000  1.000000  1.000000  1.000000
                       1.000000  1.000000  1.000000  1.000000  1.000000  1.000000
                       1.000000  1.000000  1.000000  1.000000  1.000000  1.000000
                       1.000000  1.000000  1.000000  1.000000  1.000000  1.000000
                       1.000000  1.000000  1.000000  1.000000  1.000000  1.000000
                       1.000000  1.000000  1.000000  1.000000  1.000000  1.000000
                       0.000000  0.000000  0.000000  0.000000  0.000000  0.000000
                       0.000000  0.000000  0.000000  0.000000  0.000000  0.000000
                       0.000000  0.000000  0.000000  0.000000  0.000000
                       1.000000  1.000000  1.000000  1.000000  1.000000  1.000000
                       1.000000  1.000000  1.000000  1.000000  1.000000  1.000000
                       1.000000  1.000000  1.000000  1.000000  1.000000  1.000000
                       1.000000  1.000000  1.000000  1.000000  1.000000  1.000000
                       1.000000  1.000000  1.000000  1.000000  1.000000  1.000000
                       1.000000  1.000000  1.000000  1.000000  1.000000  1.000000
                       1.000000  1.000000  1.000000  1.000000  1.000000  1.000000
                       1.000000  1.000000  1.000000  1.000000  1.000000  1.000000
                       0.000000  0.000000  0.000000  0.000000  0.000000  0.000000
                       0.000000  0.000000  0.000000  0.000000  0.000000  0.000000
                       0.000000  0.000000  0.000000  0.000000  0.000000
                       1.000000  1.000000  1.000000  1.000000  1.000000  1.000000
                       1.000000  1.000000  1.000000  1.000000  1.000000  1.000000
                       1.000000  1.000000  1.000000  1.000000  1.000000  1.000000
                       1.000000  1.000000  1.000000  1.000000  1.000000  1.000000
                       1.000000  1.000000  1.000000  1.000000  1.000000  1.000000
                       1.000000  1.000000  1.000000  1.000000  1.000000  1.000000
                       1.000000  1.000000  1.000000  1.000000  1.000000  1.000000
                       1.000000  1.000000  1.000000  1.000000  1.000000  1.000000
                       0.000000  0.000000  0.000000  0.000000  0.000000  0.000000
                       0.000000  0.000000  0.000000  0.000000  0.000000  0.000000
                       0.000000  0.000000  0.000000  0.000000  0.000000
                       1.000000  1.000000  1.000000  1.000000  1.000000  1.000000
                       1.000000  1.000000  1.000000  1.000000  1.000000  1.000000
                       1.000000  1.000000  1.000000  1.000000  1.000000  1.000000
                       1.000000  1.000000  1.000000  1.000000  1.000000  1.000000
                       1.000000  1.000000  1.000000  1.000000  1.000000  1.000000
                       1.000000  1.000000  1.000000  1.000000  1.000000  1.000000
                       1.000000  1.000000  1.000000  1.000000  1.000000  1.000000
                       1.000000  1.000000  1.000000  1.000000  1.000000  1.000000
                       0.000000  0.000000  0.000000  0.000000  0.000000  0.000000
                       0.000000  0.000000  0.000000  0.000000  0.000000  0.000000
                       0.000000  0.000000  0.000000  0.000000  0.000000
           occopt           3
           ortalg          -2
        paral_kgb           1
           prtden           0
           prteig           0
          prtkden           1
            prtwf           0
            rprim      0.0000000000E+00  1.0137047334E+01  0.0000000000E+00
                       9.6126033568E+00  0.0000000000E+00  0.0000000000E+00
                       0.0000000000E+00 -5.7455806104E+00 -9.8776109362E+00
           shiftk      5.00000000E-01  5.00000000E-01  5.00000000E-01
          spgroup           1
           spinat      0.0000000000E+00  0.0000000000E+00  1.0000000000E+00
                       0.0000000000E+00  0.0000000000E+00  1.0000000000E+00
                       0.0000000000E+00  0.0000000000E+00  1.0000000000E+00
                       0.0000000000E+00  0.0000000000E+00  1.0000000000E+00
                       0.0000000000E+00  0.0000000000E+00  1.0000000000E+00
                       0.0000000000E+00  0.0000000000E+00  1.0000000000E+00
                       0.0000000000E+00  0.0000000000E+00  1.0000000000E+00
                       0.0000000000E+00  0.0000000000E+00  1.0000000000E+00
                       0.0000000000E+00  0.0000000000E+00  1.0000000000E+00
                       0.0000000000E+00  0.0000000000E+00  1.0000000000E+00
                       0.0000000000E+00  0.0000000000E+00  1.0000000000E+00
                       0.0000000000E+00  0.0000000000E+00  1.0000000000E+00
                       0.0000000000E+00  0.0000000000E+00  1.0000000000E+00
                       0.0000000000E+00  0.0000000000E+00  1.0000000000E+00
           strten      1.3351120706E-02  1.3035744583E-02  1.3362784436E-02
                       3.5604272865E-05 -9.1686433721E-08  1.8103273975E-08
           toldfe      1.00000000E-06 Hartree
           tsmear      1.00000000E-03 Hartree
            typat      1  1  2  2  2  2  3  3  3  3  3  3  3  3
          usekden           1
         wfoptalg         114
              wtk        0.25000    0.25000    0.25000    0.25000
           xangst      2.5179514527E+00 -1.5050130030E+00 -2.5873682585E+00
                       0.0000000000E+00  0.0000000000E+00  0.0000000000E+00
                       3.1247122861E+00  1.1791084761E+00 -2.1259318285E+00
                       6.0676083337E-01  2.6265299883E+00 -4.6143642995E-01
                       1.9111906194E+00  1.1215169853E+00 -3.0488046884E+00
                       4.4291420721E+00 -3.2590452692E-01 -4.7133000870E+00
                       1.4732735386E+00  2.2122255456E+00 -3.5113588615E+00
                       3.9912249914E+00 -1.4166130873E+00 -4.2507459140E+00
                       3.5626293669E+00  8.8399915737E-02 -1.6633776555E+00
                       1.0446779141E+00  3.7172385487E+00 -9.2399060299E-01
                       3.6040748478E+00  2.3092071961E+00 -1.8953973167E+00
                       1.0861233950E+00  1.4964312683E+00 -6.9197094178E-01
                       1.4318280577E+00 -8.5817347280E-03 -3.2793392003E+00
                       3.9497795104E+00  8.0419419306E-01 -4.4827655752E+00
            xcart      4.7582386616E+00 -2.8440624022E+00 -4.8894174134E+00
                       0.0000000000E+00  0.0000000000E+00  0.0000000000E+00
                       5.9048504648E+00  2.2281921008E+00 -4.0174289331E+00
                       1.1466118032E+00  4.9634223577E+00 -8.7198848035E-01
                       3.6116268584E+00  2.1193599555E+00 -5.7614058938E+00
                       8.3698655200E+00 -6.1587030135E-01 -8.9068463465E+00
                       2.7840835068E+00  4.1805004254E+00 -6.6355066025E+00
                       7.5423221684E+00 -2.6770107712E+00 -8.0327456379E+00
                       6.7323938164E+00  1.6705163091E-01 -3.1433282244E+00
                       1.9741551548E+00  7.0245628276E+00 -1.7460891890E+00
                       6.8107144248E+00  4.3637691847E+00 -3.5817818416E+00
                       2.0524757632E+00  2.8278452738E+00 -1.3076355719E+00
                       2.7057628984E+00 -1.6217128381E-02 -6.1970529853E+00
                       7.4640015600E+00  1.5197067825E+00 -8.4711992550E+00
             xred     -5.9938125571E-17  5.0000000000E-01  5.0000000000E-01
                       0.0000000000E+00  0.0000000000E+00  0.0000000000E+00
                       4.5488100000E-01  6.2048700000E-01  4.1082900000E-01
                       5.4511900000E-01  1.2048700000E-01  8.9171000000E-02
                       5.4511900000E-01  3.7951300000E-01  5.8917100000E-01
                       4.5488100000E-01  8.7951300000E-01  9.1082900000E-01
                       8.0116400000E-01  2.9255400000E-01  6.7855800000E-01
                       1.9883600000E-01  7.9255400000E-01  8.2144200000E-01
                       1.9883600000E-01  7.0744600000E-01  3.2144200000E-01
                       8.0116400000E-01  2.0744600000E-01  1.7855800000E-01
                       6.4242900000E-01  7.1567600000E-01  3.6627900000E-01
                       3.5757100000E-01  2.1567600000E-01  1.3372100000E-01
                       3.5757100000E-01  2.8432400000E-01  6.3372100000E-01
                       6.4242900000E-01  7.8432400000E-01  8.6627900000E-01
            znucl       28.00000    6.00000    8.00000

================================================================================


- Timing analysis has been suppressed with timopt=0



================================================================================

 Suggested references for the acknowledgment of ABINIT usage.

 The users of ABINIT have little formal obligations with respect to the ABINIT group
 (those specified in the GNU General Public License, http://www.gnu.org/copyleft/gpl.txt).
 However, it is common practice in the scientific literature,
 to acknowledge the efforts of people that have made the research possible.
 In this spirit, please find below suggested citations of work written by ABINIT developers,
 corresponding to implementations inside of ABINIT that you have used in the present run.
 Note also that it will be of great value to readers of publications presenting these results,
 to read papers enabling them to understand the theoretical formalism and details
 of the ABINIT implementation.
 For information on why they are suggested, see also https://docs.abinit.org/theory/acknowledgments.
-
- [1] Libxc: A library of exchange and correlation functionals for density functional theory.
- M.A.L. Marques, M.J.T. Oliveira, T. Burnus, Computer Physics Communications 183, 2227 (2012).
- Comment: to be cited when LibXC is used (negative value of ixc)
- Strong suggestion to cite this paper.
- DOI and bibtex: see https://docs.abinit.org/theory/bibliography/#marques2012
-
- [2] Large scale ab initio calculations based on three levels of parallelization
- F. Bottin, S. Leroux, A. Knyazev, G. Zerah, Comput. Mat. Science 42, 329, (2008).
- Comment: in case LOBPCG algorithm is used (wfoptalg=4/14/114).
- Strong suggestion to cite this paper in your publications.
- This paper is also available at http://www.arxiv.org/abs/0707.3405
- DOI and bibtex: see https://docs.abinit.org/theory/bibliography/#bottin2008
-
- [3] The Abinit project: Impact, environment and recent developments.
- Computer Phys. Comm. 248, 107042 (2020).
- X.Gonze, B. Amadon, G. Antonius, F.Arnardi, L.Baguet, J.-M.Beuken,
- J.Bieder, F.Bottin, J.Bouchet, E.Bousquet, N.Brouwer, F.Bruneval,
- G.Brunin, T.Cavignac, J.-B. Charraud, Wei Chen, M.Cote, S.Cottenier,
- J.Denier, G.Geneste, Ph.Ghosez, M.Giantomassi, Y.Gillet, O.Gingras,
- D.R.Hamann, G.Hautier, Xu He, N.Helbig, N.Holzwarth, Y.Jia, F.Jollet,
- W.Lafargue-Dit-Hauret, K.Lejaeghere, M.A.L.Marques, A.Martin, C.Martins,
- H.P.C. Miranda, F.Naccarato, K. Persson, G.Petretto, V.Planes, Y.Pouillon,
- S.Prokhorenko, F.Ricci, G.-M.Rignanese, A.H.Romero, M.M.Schmitt, M.Torrent,
- M.J.van Setten, B.Van Troeye, M.J.Verstraete, G.Zerah and J.W.Zwanzig
- Comment: the fifth generic paper describing the ABINIT project.
- Note that a version of this paper, that is not formatted for Computer Phys. Comm. 
- is available at https://www.abinit.org/sites/default/files/ABINIT20.pdf .
- The licence allows the authors to put it on the Web.
- DOI and bibtex: see https://docs.abinit.org/theory/bibliography/#gonze2020
-
- [4] Optimized norm-conserving Vanderbilt pseudopotentials.
- D.R. Hamann, Phys. Rev. B 88, 085117 (2013).
- Comment: Some pseudopotential generated using the ONCVPSP code were used.
- DOI and bibtex: see https://docs.abinit.org/theory/bibliography/#hamann2013
-
- [5] ABINIT: Overview, and focus on selected capabilities
- J. Chem. Phys. 152, 124102 (2020).
- A. Romero, D.C. Allan, B. Amadon, G. Antonius, T. Applencourt, L.Baguet,
- J.Bieder, F.Bottin, J.Bouchet, E.Bousquet, F.Bruneval,
- G.Brunin, D.Caliste, M.Cote,
- J.Denier, C. Dreyer, Ph.Ghosez, M.Giantomassi, Y.Gillet, O.Gingras,
- D.R.Hamann, G.Hautier, F.Jollet, G. Jomard,
- A.Martin, 
- H.P.C. Miranda, F.Naccarato, G.Petretto, N.A. Pike, V.Planes,
- S.Prokhorenko, T. Rangel, F.Ricci, G.-M.Rignanese, M.Royo, M.Stengel, M.Torrent,
- M.J.van Setten, B.Van Troeye, M.J.Verstraete, J.Wiktor, J.W.Zwanziger, and X.Gonze.
- Comment: a global overview of ABINIT, with focus on selected capabilities .
- Note that a version of this paper, that is not formatted for J. Chem. Phys 
- is available at https://www.abinit.org/sites/default/files/ABINIT20_JPC.pdf .
- The licence allows the authors to put it on the Web.
- DOI and bibtex: see https://docs.abinit.org/theory/bibliography/#romero2020
-
- [6] Recent developments in the ABINIT software package.
- Computer Phys. Comm. 205, 106 (2016).
- X.Gonze, F.Jollet, F.Abreu Araujo, D.Adams, B.Amadon, T.Applencourt,
- C.Audouze, J.-M.Beuken, J.Bieder, A.Bokhanchuk, E.Bousquet, F.Bruneval
- D.Caliste, M.Cote, F.Dahm, F.Da Pieve, M.Delaveau, M.Di Gennaro,
- B.Dorado, C.Espejo, G.Geneste, L.Genovese, A.Gerossier, M.Giantomassi,
- Y.Gillet, D.R.Hamann, L.He, G.Jomard, J.Laflamme Janssen, S.Le Roux,
- A.Levitt, A.Lherbier, F.Liu, I.Lukacevic, A.Martin, C.Martins,
- M.J.T.Oliveira, S.Ponce, Y.Pouillon, T.Rangel, G.-M.Rignanese,
- A.H.Romero, B.Rousseau, O.Rubel, A.A.Shukri, M.Stankovski, M.Torrent,
- M.J.Van Setten, B.Van Troeye, M.J.Verstraete, D.Waroquier, J.Wiktor,
- B.Xu, A.Zhou, J.W.Zwanziger.
- Comment: the fourth generic paper describing the ABINIT project.
- Note that a version of this paper, that is not formatted for Computer Phys. Comm. 
- is available at https://www.abinit.org/sites/default/files/ABINIT16.pdf .
- The licence allows the authors to put it on the Web.
- DOI and bibtex: see https://docs.abinit.org/theory/bibliography/#gonze2016
-
- Proc.   0 individual time (sec): cpu=       3111.9  wall=       3130.0

================================================================================

 Calculation completed.
.Delivered   0 WARNINGs and   0 COMMENTs to log file.
+Overall time at end (sec) : cpu=      74838.6  wall=      75119.4
