---------------------------------------
Begin Slurm Prolog: Dec-22-2022 12:15:06
Job ID:    223883
User ID:   bzhang376
Account:   gts-phanish6-coda20
Job name:  Abi098
Partition: cpu-small
QOS:       inferno
---------------------------------------
  ABINIT 9.6.2
  
 DeprecationWarning: 

     The files file has been deprecated in Abinit9 and will be removed in Abinit10.
     Use the syntax `abinit t01.abi` where t01.abi is an input with pseudopotentials e.g.

            pseudos = "al.psp8, as.psp8"


  Give name for formatted input file: 
NiC2O4.in
  Give name for formatted output file:
NiC2O4.out
  Give root name for generic input files:
abi
  Give root name for generic output files:
abo
  Give root name for generic temporary files:
tmp

.Version 9.6.2 of ABINIT 
.(MPI version, prepared for a x86_64_linux_gnu10.3 computer) 

.Copyright (C) 1998-2021 ABINIT group . 
 ABINIT comes with ABSOLUTELY NO WARRANTY.
 It is free software, and you are welcome to redistribute it
 under certain conditions (GNU General Public License,
 see ~abinit/COPYING or http://www.gnu.org/copyleft/gpl.txt).

 ABINIT is a project of the Universite Catholique de Louvain,
 Corning Inc. and other collaborators, see ~abinit/doc/developers/contributors.txt .
 Please read https://docs.abinit.org/theory/acknowledgments for suggested
 acknowledgments of the ABINIT effort.
 For more information, see https://www.abinit.org .

.Starting date : Thu 22 Dec 2022.
- ( at 12h15 )
  

 ++++++++++++++++++++++++++++++++++++++++++++++++++++++++++++++++++++++++++++++

 === Build Information === 
  Version       : 9.6.2
  Build target  : x86_64_linux_gnu10.3
  Build date    : 20221111

 === Compiler Suite === 
  C compiler       : gnu10.3
  C++ compiler     : gnu10.3
  Fortran compiler : gnu10.3
  CFLAGS           : -g -O2 -mtune=native -march=native
  CXXFLAGS         : -g -O2 -mtune=native -march=native
  FCFLAGS          : -g -ffree-line-length-none -fallow-argument-mismatch     -I/usr/loc ...
  FC_LDFLAGS       : 

 === Optimizations === 
  Debug level        : basic
  Optimization level : standard
  Architecture       : intel_xeon

 === Multicore === 
  Parallel build : yes
  Parallel I/O   : 
  openMP support : no
  GPU support    : 

 === Connectors / Fallbacks === 
  LINALG flavor  : openblas
  FFT flavor     : fftw3
  HDF5           : yes
  NetCDF         : yes
  NetCDF Fortran : yes
  LibXC          : yes
  Wannier90      : no

 === Experimental features === 
  Exports             : 
  GW double-precision : 

 ++++++++++++++++++++++++++++++++++++++++++++++++++++++++++++++++++++++++++++++


 ++++++++++++++++++++++++++++++++++++++++++++++++++++++++++++++++++++++++++++++
 Default optimizations:
   -O2 -mtune=native -march=native


 Optimizations for 43_ptgroups:
   -O0


 ++++++++++++++++++++++++++++++++++++++++++++++++++++++++++++++++++++++++++++++


 ++++++++++++++++++++++++++++++++++++++++++++++++++++++++++++++++++++++++++++++
 CPP options activated during the build:

                    CC_GNU                   CXX_GNU                    FC_GNU
 
              HAVE_ATOMPAW HAVE_FC_ALLOCATABLE_DT...             HAVE_FC_ASYNC
 
         HAVE_FC_BACKTRACE  HAVE_FC_COMMAND_ARGUMENT      HAVE_FC_COMMAND_LINE
 
        HAVE_FC_CONTIGUOUS           HAVE_FC_CPUTIME              HAVE_FC_EXIT
 
             HAVE_FC_FLUSH             HAVE_FC_GAMMA            HAVE_FC_GETENV
 
   HAVE_FC_IEEE_ARITHMETIC   HAVE_FC_IEEE_EXCEPTIONS          HAVE_FC_INT_QUAD
 
             HAVE_FC_IOMSG     HAVE_FC_ISO_C_BINDING  HAVE_FC_ISO_FORTRAN_2008
 
        HAVE_FC_LONG_LINES        HAVE_FC_MOVE_ALLOC  HAVE_FC_ON_THE_FLY_SHAPE
 
           HAVE_FC_PRIVATE         HAVE_FC_PROTECTED           HAVE_FC_SHIFTLR
 
         HAVE_FC_STREAM_IO            HAVE_FC_SYSTEM                HAVE_FFTW3
 
          HAVE_FORTRAN2003                 HAVE_HDF5        HAVE_LIBPAW_ABINIT
 
      HAVE_LIBTETRA_ABINIT                HAVE_LIBXC         HAVE_LINALG_AXPBY
 
        HAVE_LINALG_GEMM3M                  HAVE_MPI                 HAVE_MPI2
 
       HAVE_MPI_IALLGATHER       HAVE_MPI_IALLREDUCE        HAVE_MPI_IALLTOALL
 
       HAVE_MPI_IALLTOALLV           HAVE_MPI_IBCAST         HAVE_MPI_IGATHERV
 
        HAVE_MPI_INTEGER16               HAVE_MPI_IO HAVE_MPI_TYPE_CREATE_S...
 
               HAVE_NETCDF       HAVE_NETCDF_FORTRAN             HAVE_OS_LINUX
 
         HAVE_TIMER_ABINIT                                                      
 ++++++++++++++++++++++++++++++++++++++++++++++++++++++++++++++++++++++++++++++

- input  file    -> NiC2O4.in
- output file    -> NiC2O4.out
- root for input  files -> abi
- root for output files -> abo

-instrng: 90 lines of input have been read from file NiC2O4.in


 Please give name of formatted atomic psp file (and finish with a newline character)
 For atom type 1, psp file is ../Ni.pot

 Please give name of formatted atomic psp file (and finish with a newline character)
 For atom type 2, psp file is ../C.pot

 Please give name of formatted atomic psp file (and finish with a newline character)
 For atom type 3, psp file is ../O.pot
  read the values zionpsp= 18.0 , pspcod=   8 , lmax=   2
  read the values zionpsp=  4.0 , pspcod=   8 , lmax=   1
  read the values zionpsp=  6.0 , pspcod=   8 , lmax=   1

 inpspheads: deduce mpsang = 3, n1xccc = 0.

======================================================= 
 invars1m : enter jdtset= 0

 symlatt: the Bravais lattice is mP (primitive monoclinic)
  xred   is defined in input file
 ingeo: takes atomic coordinates from input array xred

 symlatt: the Bravais lattice is mP (primitive monoclinic)

 symlatt: the Bravais lattice is mP (primitive monoclinic)

--- !COMMENT
src_file: m_symfind.F90
src_line: 1020
message: |
    The Bravais lattice determined only from the primitive
    vectors, bravais(1)=  2, is more symmetric
    than the real one, iholohedry=  1, obtained by taking into
    account the atomic positions. Start deforming the primitive vector set.
...


 symlatt: the Bravais lattice is aP (primitive triclinic)
 symspgr: spgroup=   1  P1   (=C1^1)
 initocc_chkneu: initialized the occupation numbers for occopt= 3
    spin up   values:
 getmpw sequential formula gave: 176325

 ====================================================================================================
 Searching for all possible proc distributions for this input with #CPUs<=14:

 ~~~~~~~~~~~~~~~~~~~~~~~~~~~~~~~~~~~~~~~~~~~~~~~~~~~~~~~~~~~~~~~~~~~~~~~~~~~~~
 |       np_spkpt|       npfft|      npband|      bandpp|  #MPI(proc)|    WEIGHT|
 |    1<<    8|    1<<   14|    1<<   14|    1<<   65|    1<<   14|  <=    14|
 ~~~~~~~~~~~~~~~~~~~~~~~~~~~~~~~~~~~~~~~~~~~~~~~~~~~~~~~~~~~~~~~~~~~~~~~~~~~~~
 |           8|           1|           1|           1|           8|     7.767|
 |           7|           2|           1|           1|          14|     7.531|
 |           4|           3|           1|           1|          12|     7.444|
 |           6|           2|           1|           1|          12|     7.100|
 |           1|           2|           5|           1|          10|     6.684|
 |           5|           2|           1|           1|          10|     6.574|
 |           3|           4|           1|           1|          12|     6.225|
 |           4|           2|           1|           1|           8|     5.917|
 |           2|           6|           1|           1|          12|     5.123|
 |           2|           1|           5|           1|          10|     5.002|
 ~~~~~~~~~~~~~~~~~~~~~~~~~~~~~~~~~~~~~~~~~~~~~~~~~~~~~~~~~~~~~~~~~~~~~~~~~~~~~
 Only the best possible choices for nproc are printed...

 >>> Possible (best) choices for the number of bands (nband) are:
     with: np_spkpt=8 npfft=1
     nband=    64 using      8 CPUs =     8 MPI x  1 threads (npband=    1)
     nband=    66 using      8 CPUs =     8 MPI x  1 threads (npband=    1)
     nband=    65 using      8 CPUs =     8 MPI x  1 threads (npband=    1)
 >>> The present nband value (    65) seems to be the best choice!
 ====================================================================================================


 For input ecut=  2.500000E+02 best grid ngfft=     144     144     162
       max ecut=  2.529870E+02

 ==== FFT mesh ====
  FFT mesh divisions ........................   144  144  162
  Augmented FFT divisions ...................   145  145  162
  FFT algorithm .............................   312
  FFT cache size ............................    16
 getmpw: optimal value of mpw= 176360

 Symmetries : space group P1 (#  1); Bravais aP (primitive triclinic)

 getdim_nloc : deduce lmnmax  =  18, lnmax  =   6,
                      lmnmaxso=  18, lnmaxso=   6.
memory: analysis of memory needs
================================================================================
 Values of the parameters that define the memory need of the present run
     intxc =       0    ionmov =       0      iscf =       7    lmnmax =       6
     lnmax =       6     mgfft =     162  mpssoang =       3    mqgrid =    6961
     natom =      14  nloc_mem =       1    nspden =       2   nspinor =       1
    nsppol =       2      nsym =       1    n1xccc =       0    ntypat =       3
    occopt =       3   xclevel =       2
-    mband =          65        mffmem =           1         mkmem =           1
       mpw =      176360          nfft =     3359232          nkpt =           4
================================================================================
P This job should need less than                    1996.356 Mbytes of memory.
  Rough estimation (10% accuracy) of disk space for files :
_ WF disk file :   1399.343 Mbytes ; DEN or POT disk file :     51.260 Mbytes.
================================================================================

 Biggest array : f_fftgr(disk), with    820.1270 MBytes.
 memana : allocated an array of    820.127 Mbytes, for testing purposes.
 memana: allocated    1996.356Mbytes, for testing purposes. 
 The job will continue.
--------------------------------------------------------------------------------
------------- Echo of variables that govern the present computation ------------
--------------------------------------------------------------------------------
-
- outvars: echo of selected default values                                      
-   iomode0 =  0 , fftalg0 =312 , wfoptalg0 =  0
-
- outvars: echo of global parameters not present in the input file              
-  max_nthreads =    0
-
 -outvars: echo values of preprocessed input variables --------
 
 These variables are accessible in NetCDF format (abo_OUT.nc)

            acell      9.9000000000E-01  9.9000000000E-01  9.9000000000E-01 Bohr
              amu      5.86900000E+01  1.20110000E+01  1.59994000E+01
        autoparal           1
           diemac      1.00000000E+00
           diemix      4.00000000E-01
             ecut      2.50000000E+02 Hartree
           ecutsm      5.00000000E-01 Hartree
-          fftalg         312
              ixc     -263267
              kpt      2.50000000E-01  2.50000000E-01  2.50000000E-01
                      -2.50000000E-01  2.50000000E-01  2.50000000E-01
                       2.50000000E-01 -2.50000000E-01  2.50000000E-01
                      -2.50000000E-01 -2.50000000E-01  2.50000000E-01
         kptrlatt        2    0    0      0    2    0      0    0    2
          kptrlen      1.90329546E+01
P           mkmem           1
            natom          14
            nband          65
            ngfft         144     144     162
             nkpt           4
-        np_spkpt           8
           nspden           2
           nsppol           2
            nstep          60
             nsym           1
           ntypat           3
              occ      1.000000  1.000000  1.000000  1.000000  1.000000  1.000000
                       1.000000  1.000000  1.000000  1.000000  1.000000  1.000000
                       1.000000  1.000000  1.000000  1.000000  1.000000  1.000000
                       1.000000  1.000000  1.000000  1.000000  1.000000  1.000000
                       1.000000  1.000000  1.000000  1.000000  1.000000  1.000000
                       1.000000  1.000000  1.000000  1.000000  1.000000  1.000000
                       1.000000  1.000000  1.000000  1.000000  1.000000  1.000000
                       1.000000  1.000000  1.000000  1.000000  1.000000  1.000000
                       1.000000  1.000000  0.000000  0.000000  0.000000  0.000000
                       0.000000  0.000000  0.000000  0.000000  0.000000  0.000000
                       0.000000  0.000000  0.000000  0.000000  0.000000
                       1.000000  1.000000  1.000000  1.000000  1.000000  1.000000
                       1.000000  1.000000  1.000000  1.000000  1.000000  1.000000
                       1.000000  1.000000  1.000000  1.000000  1.000000  1.000000
                       1.000000  1.000000  1.000000  1.000000  1.000000  1.000000
                       1.000000  1.000000  1.000000  1.000000  1.000000  1.000000
                       1.000000  1.000000  1.000000  1.000000  1.000000  1.000000
                       1.000000  1.000000  1.000000  1.000000  1.000000  1.000000
                       1.000000  1.000000  1.000000  1.000000  1.000000  1.000000
                       1.000000  1.000000  0.000000  0.000000  0.000000  0.000000
                       0.000000  0.000000  0.000000  0.000000  0.000000  0.000000
                       0.000000  0.000000  0.000000  0.000000  0.000000
                       1.000000  1.000000  1.000000  1.000000  1.000000  1.000000
                       1.000000  1.000000  1.000000  1.000000  1.000000  1.000000
                       1.000000  1.000000  1.000000  1.000000  1.000000  1.000000
                       1.000000  1.000000  1.000000  1.000000  1.000000  1.000000
                       1.000000  1.000000  1.000000  1.000000  1.000000  1.000000
                       1.000000  1.000000  1.000000  1.000000  1.000000  1.000000
                       1.000000  1.000000  1.000000  1.000000  1.000000  1.000000
                       1.000000  1.000000  1.000000  1.000000  1.000000  1.000000
                       1.000000  1.000000  0.000000  0.000000  0.000000  0.000000
                       0.000000  0.000000  0.000000  0.000000  0.000000  0.000000
                       0.000000  0.000000  0.000000  0.000000  0.000000
                       1.000000  1.000000  1.000000  1.000000  1.000000  1.000000
                       1.000000  1.000000  1.000000  1.000000  1.000000  1.000000
                       1.000000  1.000000  1.000000  1.000000  1.000000  1.000000
                       1.000000  1.000000  1.000000  1.000000  1.000000  1.000000
                       1.000000  1.000000  1.000000  1.000000  1.000000  1.000000
                       1.000000  1.000000  1.000000  1.000000  1.000000  1.000000
                       1.000000  1.000000  1.000000  1.000000  1.000000  1.000000
                       1.000000  1.000000  1.000000  1.000000  1.000000  1.000000
                       1.000000  1.000000  0.000000  0.000000  0.000000  0.000000
                       0.000000  0.000000  0.000000  0.000000  0.000000  0.000000
                       0.000000  0.000000  0.000000  0.000000  0.000000
                       1.000000  1.000000  1.000000  1.000000  1.000000  1.000000
                       1.000000  1.000000  1.000000  1.000000  1.000000  1.000000
                       1.000000  1.000000  1.000000  1.000000  1.000000  1.000000
                       1.000000  1.000000  1.000000  1.000000  1.000000  1.000000
                       1.000000  1.000000  1.000000  1.000000  1.000000  1.000000
                       1.000000  1.000000  1.000000  1.000000  1.000000  1.000000
                       1.000000  1.000000  1.000000  1.000000  1.000000  1.000000
                       1.000000  1.000000  1.000000  1.000000  1.000000  1.000000
                       1.000000  1.000000  0.000000  0.000000  0.000000  0.000000
                       0.000000  0.000000  0.000000  0.000000  0.000000  0.000000
                       0.000000  0.000000  0.000000  0.000000  0.000000
                       1.000000  1.000000  1.000000  1.000000  1.000000  1.000000
                       1.000000  1.000000  1.000000  1.000000  1.000000  1.000000
                       1.000000  1.000000  1.000000  1.000000  1.000000  1.000000
                       1.000000  1.000000  1.000000  1.000000  1.000000  1.000000
                       1.000000  1.000000  1.000000  1.000000  1.000000  1.000000
                       1.000000  1.000000  1.000000  1.000000  1.000000  1.000000
                       1.000000  1.000000  1.000000  1.000000  1.000000  1.000000
                       1.000000  1.000000  1.000000  1.000000  1.000000  1.000000
                       1.000000  1.000000  0.000000  0.000000  0.000000  0.000000
                       0.000000  0.000000  0.000000  0.000000  0.000000  0.000000
                       0.000000  0.000000  0.000000  0.000000  0.000000
                       1.000000  1.000000  1.000000  1.000000  1.000000  1.000000
                       1.000000  1.000000  1.000000  1.000000  1.000000  1.000000
                       1.000000  1.000000  1.000000  1.000000  1.000000  1.000000
                       1.000000  1.000000  1.000000  1.000000  1.000000  1.000000
                       1.000000  1.000000  1.000000  1.000000  1.000000  1.000000
                       1.000000  1.000000  1.000000  1.000000  1.000000  1.000000
                       1.000000  1.000000  1.000000  1.000000  1.000000  1.000000
                       1.000000  1.000000  1.000000  1.000000  1.000000  1.000000
                       1.000000  1.000000  0.000000  0.000000  0.000000  0.000000
                       0.000000  0.000000  0.000000  0.000000  0.000000  0.000000
                       0.000000  0.000000  0.000000  0.000000  0.000000
                       1.000000  1.000000  1.000000  1.000000  1.000000  1.000000
                       1.000000  1.000000  1.000000  1.000000  1.000000  1.000000
                       1.000000  1.000000  1.000000  1.000000  1.000000  1.000000
                       1.000000  1.000000  1.000000  1.000000  1.000000  1.000000
                       1.000000  1.000000  1.000000  1.000000  1.000000  1.000000
                       1.000000  1.000000  1.000000  1.000000  1.000000  1.000000
                       1.000000  1.000000  1.000000  1.000000  1.000000  1.000000
                       1.000000  1.000000  1.000000  1.000000  1.000000  1.000000
                       1.000000  1.000000  0.000000  0.000000  0.000000  0.000000
                       0.000000  0.000000  0.000000  0.000000  0.000000  0.000000
                       0.000000  0.000000  0.000000  0.000000  0.000000
           occopt           3
           prtden           0
           prteig           0
          prtkden           1
            prtwf           0
            rprim      0.0000000000E+00  1.0137047334E+01  0.0000000000E+00
                       9.6126033568E+00  0.0000000000E+00  0.0000000000E+00
                       0.0000000000E+00 -5.7455806104E+00 -9.8776109362E+00
           shiftk      5.00000000E-01  5.00000000E-01  5.00000000E-01
          spgroup           1
           spinat      0.0000000000E+00  0.0000000000E+00  1.0000000000E+00
                       0.0000000000E+00  0.0000000000E+00  1.0000000000E+00
                       0.0000000000E+00  0.0000000000E+00  1.0000000000E+00
                       0.0000000000E+00  0.0000000000E+00  1.0000000000E+00
                       0.0000000000E+00  0.0000000000E+00  1.0000000000E+00
                       0.0000000000E+00  0.0000000000E+00  1.0000000000E+00
                       0.0000000000E+00  0.0000000000E+00  1.0000000000E+00
                       0.0000000000E+00  0.0000000000E+00  1.0000000000E+00
                       0.0000000000E+00  0.0000000000E+00  1.0000000000E+00
                       0.0000000000E+00  0.0000000000E+00  1.0000000000E+00
                       0.0000000000E+00  0.0000000000E+00  1.0000000000E+00
                       0.0000000000E+00  0.0000000000E+00  1.0000000000E+00
                       0.0000000000E+00  0.0000000000E+00  1.0000000000E+00
                       0.0000000000E+00  0.0000000000E+00  1.0000000000E+00
           toldfe      1.00000000E-06 Hartree
           tsmear      1.00000000E-03 Hartree
            typat      1  1  2  2  2  2  3  3  3  3  3  3  3  3
          usekden           1
              wtk        0.25000    0.25000    0.25000    0.25000
           xangst      2.5179514527E+00 -1.5050130030E+00 -2.5873682585E+00
                       0.0000000000E+00  0.0000000000E+00  0.0000000000E+00
                       3.1247122861E+00  1.1791084761E+00 -2.1259318285E+00
                       6.0676083337E-01  2.6265299883E+00 -4.6143642995E-01
                       1.9111906194E+00  1.1215169853E+00 -3.0488046884E+00
                       4.4291420721E+00 -3.2590452692E-01 -4.7133000870E+00
                       1.4732735386E+00  2.2122255456E+00 -3.5113588615E+00
                       3.9912249914E+00 -1.4166130873E+00 -4.2507459140E+00
                       3.5626293669E+00  8.8399915737E-02 -1.6633776555E+00
                       1.0446779141E+00  3.7172385487E+00 -9.2399060299E-01
                       3.6040748478E+00  2.3092071961E+00 -1.8953973167E+00
                       1.0861233950E+00  1.4964312683E+00 -6.9197094178E-01
                       1.4318280577E+00 -8.5817347280E-03 -3.2793392003E+00
                       3.9497795104E+00  8.0419419306E-01 -4.4827655752E+00
            xcart      4.7582386616E+00 -2.8440624022E+00 -4.8894174134E+00
                       0.0000000000E+00  0.0000000000E+00  0.0000000000E+00
                       5.9048504648E+00  2.2281921008E+00 -4.0174289331E+00
                       1.1466118032E+00  4.9634223577E+00 -8.7198848035E-01
                       3.6116268584E+00  2.1193599555E+00 -5.7614058938E+00
                       8.3698655200E+00 -6.1587030135E-01 -8.9068463465E+00
                       2.7840835068E+00  4.1805004254E+00 -6.6355066025E+00
                       7.5423221684E+00 -2.6770107712E+00 -8.0327456379E+00
                       6.7323938164E+00  1.6705163091E-01 -3.1433282244E+00
                       1.9741551548E+00  7.0245628276E+00 -1.7460891890E+00
                       6.8107144248E+00  4.3637691847E+00 -3.5817818416E+00
                       2.0524757632E+00  2.8278452738E+00 -1.3076355719E+00
                       2.7057628984E+00 -1.6217128381E-02 -6.1970529853E+00
                       7.4640015600E+00  1.5197067825E+00 -8.4711992550E+00
             xred     -5.9938125571E-17  5.0000000000E-01  5.0000000000E-01
                       0.0000000000E+00  0.0000000000E+00  0.0000000000E+00
                       4.5488100000E-01  6.2048700000E-01  4.1082900000E-01
                       5.4511900000E-01  1.2048700000E-01  8.9171000000E-02
                       5.4511900000E-01  3.7951300000E-01  5.8917100000E-01
                       4.5488100000E-01  8.7951300000E-01  9.1082900000E-01
                       8.0116400000E-01  2.9255400000E-01  6.7855800000E-01
                       1.9883600000E-01  7.9255400000E-01  8.2144200000E-01
                       1.9883600000E-01  7.0744600000E-01  3.2144200000E-01
                       8.0116400000E-01  2.0744600000E-01  1.7855800000E-01
                       6.4242900000E-01  7.1567600000E-01  3.6627900000E-01
                       3.5757100000E-01  2.1567600000E-01  1.3372100000E-01
                       3.5757100000E-01  2.8432400000E-01  6.3372100000E-01
                       6.4242900000E-01  7.8432400000E-01  8.6627900000E-01
            znucl       28.00000    6.00000    8.00000

================================================================================

 chkinp: Checking input parameters for consistency.
 DATA TYPE INFORMATION: 
 REAL:      Data type name: REAL(DP) 
            Kind value:      8
            Precision:      15
            Smallest nonnegligible quantity relative to 1: 0.22204460E-015
            Smallest positive number:                      0.22250739E-307
            Largest representable number:                  0.17976931E+309
 INTEGER:   Data type name: INTEGER(default) 
            Kind value: 4
            Bit size:   32
            Largest representable number: 2147483647
 LOGICAL:   Data type name: LOGICAL 
            Kind value: 4
 CHARACTER: Data type name: CHARACTER             Kind value: 1

  ==== OpenMP parallelism is OFF ====
 
  ==== Using MPI-2 specifications ==== 
  MPI-IO support is ON
  xmpi_tag_ub ................    268435455
  xmpi_bsize_ch ..............            1
  xmpi_bsize_int .............            4
  xmpi_bsize_sp ..............            4
  xmpi_bsize_dp ..............            8
  xmpi_bsize_spc .............            8
  xmpi_bsize_dpc .............           16
  xmpio_bsize_frm ............            4
  xmpi_address_kind ..........            8
  xmpi_offset_kind ...........            8
  MPI_WTICK ..................    1.0000000000000001E-009

================================================================================
== DATASET  1 ==================================================================
-   mpi_nproc: 8, omp_nthreads: -1 (-1 if OMP is not activated)


--- !COMMENT
src_file: m_xgScalapack.F90
src_line: 236
message: |
    xgScalapack in auto mode
...


 getdim_nloc : deduce lmnmax  =  18, lnmax  =   6,
                      lmnmaxso=  18, lnmaxso=   6.
 SCAN exchange of Sun, Ruzsinszky, and Perdew
 J. Sun, A. Ruzsinszky, and J. P. Perdew, Phys. Rev. Lett. 115, 036402 (2015)
 SCAN correlation of Sun, Ruzsinszky, and Perdew
 J. Sun, A. Ruzsinszky, and J. P. Perdew, Phys. Rev. Lett. 115, 036402 (2015)

 Unit cell volume ucvol=  9.3392069E+02 bohr^3
 Angles (23,13,12)=  9.00000000E+01  1.20185586E+02  9.00000000E+01 degrees

 getcut: wavevector=  0.0000  0.0000  0.0000  ngfft= 144 144 162
         ecut(hartree)=    250.000   => boxcut(ratio)=   2.01191
- pspini: atom type   1  psp file is ../Ni.pot
- pspatm: opening atomic psp file    ../Ni.pot
- Ni    ONCVPSP-4.0.1  r_core=   2.18101   2.18101   2.24723
- 28.00000  18.00000    200312                znucl, zion, pspdat
    8   11    2    4       600   0.00000      pspcod,pspxc,lmax,lloc,mmax,r2well

--- !WARNING
src_file: m_pspini.F90
src_line: 1039
message: |
    Pseudopotential file pspxc: 11, not equal to input ixc: -263267.
    These parameters must agree to get the same xc in ABINIT code as in psp construction.
    Action: check psp design or input file.
    Assume experienced user. Execution will continue.
...

    5.99000000000000    0.00000000000000    0.00000000000000   rchrg,fchrg,qchrg
     nproj     2     2     2
     extension_switch     1
  valence charge integrates to:    17.968162128216466     
  pspatm : epsatm=   38.47316822
         --- l  ekb(1:nproj) -->
             0   -3.440917   -0.196078
             1   -5.406223   -1.725842
             2   -7.274254   -2.503385
 pspatm: atomic psp has been read  and splines computed

- pspini: atom type   2  psp file is ../C.pot
- pspatm: opening atomic psp file    ../C.pot
- C     ONCVPSP-4.0.1  r_core=   1.42727   1.38521
-  6.00000   4.00000    200312                znucl, zion, pspdat
    8   11    1    4       600   0.00000      pspcod,pspxc,lmax,lloc,mmax,r2well

--- !WARNING
src_file: m_pspini.F90
src_line: 1039
message: |
    Pseudopotential file pspxc: 11, not equal to input ixc: -263267.
    These parameters must agree to get the same xc in ABINIT code as in psp construction.
    Action: check psp design or input file.
    Assume experienced user. Execution will continue.
...

    5.99000000000000    0.00000000000000    0.00000000000000   rchrg,fchrg,qchrg
     nproj     2     2
     extension_switch     1
  valence charge integrates to:    3.9929454931231523     
  pspatm : epsatm=    2.26998732
         --- l  ekb(1:nproj) -->
             0    7.571912    0.889574
             1   -3.169338   -0.856835
 pspatm: atomic psp has been read  and splines computed

- pspini: atom type   3  psp file is ../O.pot
- pspatm: opening atomic psp file    ../O.pot
- O     ONCVPSP-4.0.1  r_core=   1.28926   1.47061
-  8.00000   6.00000    200312                znucl, zion, pspdat
    8   11    1    4       600   0.00000      pspcod,pspxc,lmax,lloc,mmax,r2well

--- !WARNING
src_file: m_pspini.F90
src_line: 1039
message: |
    Pseudopotential file pspxc: 11, not equal to input ixc: -263267.
    These parameters must agree to get the same xc in ABINIT code as in psp construction.
    Action: check psp design or input file.
    Assume experienced user. Execution will continue.
...

    5.99000000000000    0.00000000000000    0.00000000000000   rchrg,fchrg,qchrg
     nproj     2     2
     extension_switch     1
  valence charge integrates to:    5.9990318584788609     
  pspatm : epsatm=    3.44365635
         --- l  ekb(1:nproj) -->
             0    9.802940    1.339963
             1   -3.661294   -1.085684
 pspatm: atomic psp has been read  and splines computed

   1.13575537E+04                                ecore*ucvol(ha*bohr**3)
 ==== Info on pseudopotentials ====
  Norm-conserving pseudopotentials
  Number of pseudopotentials ..    3
  Number of types of atoms   ..    3
  Scalar calculation (no spin-orbit term)
  Nonlocal part applied using Legendre polynomials
  Max number of non-local projectors over l and type   2
  Highest angular momentum +1 .......   3
  Max number of (l,n)   components ..   6
  Max number of (l,m,n) components ..   6

 Info on the Q-grid used for form factors in spline form: 
   Number of q-points for radial functions ffspl ..   6961
   Number of q-points for vlspl ...................   6961
   vloc is computed in Reciprocal Space
   model core charge treated in real-space

  XC functional for type 1 is 11
  Pseudo valence available: yes
  XC functional for type 2 is 11
  Pseudo valence available: yes
  XC functional for type 3 is 11
  Pseudo valence available: yes

 newkpt: spin channel isppol2 =     1
 wfconv:    65 bands initialized randomly with npw=176360, for ikpt=     1
 newkpt: spin channel isppol2 =     2
_setup2: Arith. and geom. avg. npw (full set) are  176339.000  176338.999
 initro: for itypat=  1, take pseudo charge density from pp file
 initro: for itypat=  2, take pseudo charge density from pp file
 initro: for itypat=  3, take pseudo charge density from pp file

================================================================================

 getcut: wavevector=  0.0000  0.0000  0.0000  ngfft= 144 144 162
         ecut(hartree)=    250.000   => boxcut(ratio)=   2.01191

 1/G**2 cut-off applied in the following step : cutoff-mode = CRYSTAL

 1/G**2 cut-off applied in the following step : cutoff-mode = CRYSTAL

 1/G**2 cut-off applied in the following step : cutoff-mode = CRYSTAL

 ITER STEP NUMBER     1
 Max number of non-self-consistent loops: 2
 newocc: new Fermi energy is       0.149198 , with nelect=    100.000000, Number of bisection calls: 46
 mkrho: echo density (plane-wave part only)
 Total charge density [el/Bohr^3]
      Maximum=    2.9487E+00  at reduced coord.    0.9514    0.5069    0.5123
      Minimum=    2.4730E-03  at reduced coord.    0.9653    0.9792    0.4877
   Integrated=    1.0000E+02
 Spin up density      [el/Bohr^3]
      Maximum=    1.4860E+00  at reduced coord.    0.9514    0.5069    0.5123
      Minimum=    1.2031E-03  at reduced coord.    0.0694    0.5139    0.9815
   Integrated=    5.0936E+01
 Spin down density    [el/Bohr^3]
      Maximum=    1.4627E+00  at reduced coord.    0.9514    0.5069    0.5123
      Minimum=    1.1710E-03  at reduced coord.    0.9792    0.9931    0.5000
   Integrated=    4.9064E+01
 Magnetization (spin up - spin down) [el/Bohr^3]
      Maximum=    1.2185E-01  at reduced coord.    0.0764    0.4653    0.5370
      Minimum=   -2.7139E-03  at reduced coord.    0.0764    0.4514    0.6296
   Integrated=    1.8715E+00
 Relative magnetization (=zeta, between -1 and 1)
      Maximum=    1.9632E-01  at reduced coord.    0.5625    0.4097    0.6235
      Minimum=   -9.3286E-02  at reduced coord.    0.9931    0.6667    0.9444
 mkrho: echo density (plane-wave part only)
 Total kinetic energy density [Ha/Bohr^3]
      Maximum=    1.9738E+01  at reduced coord.    0.0000    0.0000    0.0000
      Minimum=    1.6406E-03  at reduced coord.    0.9375    0.0139    0.5062
   Integrated=    2.3807E+02
 Spin up density      [Ha/Bohr^3]
      Maximum=    9.8935E+00  at reduced coord.    0.0000    0.0000    0.0000
      Minimum=    7.9295E-04  at reduced coord.    0.9653    0.4792    0.0309
   Integrated=    1.2326E+02
 Spin down density    [Ha/Bohr^3]
      Maximum=    9.8440E+00  at reduced coord.    0.0000    0.0000    0.0000
      Minimum=    8.4509E-04  at reduced coord.    0.9444    0.0139    0.5062
   Integrated=    1.1481E+02
 Magnetization (spin up - spin down) [Ha/Bohr^3]
      Maximum=    8.0500E-01  at reduced coord.    0.2014    0.7083    0.3210
      Minimum=   -5.8994E-04  at reduced coord.    0.8681    0.8472    0.8333
   Integrated=    8.4467E+00
 Relative magnetization (=zeta, between -1 and 1)
      Maximum=    2.1055E-01  at reduced coord.    0.5000    0.5000    0.5000
      Minimum=   -5.3787E-02  at reduced coord.    0.1667    0.4444    0.8272
 Total charge density [el/Bohr^3]
      Maximum=    2.9487E+00  at reduced coord.    0.9514    0.5069    0.5123
      Minimum=    2.4730E-03  at reduced coord.    0.9653    0.9792    0.4877
   Integrated=    1.0000E+02
 Spin up density      [el/Bohr^3]
      Maximum=    1.4860E+00  at reduced coord.    0.9514    0.5069    0.5123
      Minimum=    1.2031E-03  at reduced coord.    0.0694    0.5139    0.9815
   Integrated=    5.0936E+01
 Spin down density    [el/Bohr^3]
      Maximum=    1.4627E+00  at reduced coord.    0.9514    0.5069    0.5123
      Minimum=    1.1710E-03  at reduced coord.    0.9792    0.9931    0.5000
   Integrated=    4.9064E+01
 Magnetization (spin up - spin down) [el/Bohr^3]
      Maximum=    1.2185E-01  at reduced coord.    0.0764    0.4653    0.5370
      Minimum=   -2.7139E-03  at reduced coord.    0.0764    0.4514    0.6296
   Integrated=    1.8715E+00
 Relative magnetization (=zeta, between -1 and 1)
      Maximum=    1.9632E-01  at reduced coord.    0.5625    0.4097    0.6235
      Minimum=   -9.3286E-02  at reduced coord.    0.9931    0.6667    0.9444

 1/G**2 cut-off applied in the following step : cutoff-mode = CRYSTAL
 ETOT  1  -456.34820735938    -4.56E+02 3.75E-01 2.14E+05 1.871
 scprqt: <Vxc>= -4.1337129E-01 hartree

 Simple mixing update:
  residual square of the potential:    34211.330792455046
{SCF_istep: 1 , Vnl|psi>: 650 , wall_time: ' 07:21 [minutes] '} <<< TIME

 ITER STEP NUMBER     2
 Max number of non-self-consistent loops: 2
 newocc: new Fermi energy is       0.075961 , with nelect=    100.000000, Number of bisection calls: 47
 mkrho: echo density (plane-wave part only)
 Total charge density [el/Bohr^3]
      Maximum=    3.1600E+00  at reduced coord.    0.0556    0.0000    0.9938
      Minimum=    1.5246E-03  at reduced coord.    0.0000    0.0000    0.5000
   Integrated=    1.0000E+02
 Spin up density      [el/Bohr^3]
      Maximum=    1.6162E+00  at reduced coord.    0.9444    0.9653    0.9815
      Minimum=    7.0928E-04  at reduced coord.    0.0000    0.0000    0.5000
   Integrated=    5.1998E+01
 Spin down density    [el/Bohr^3]
      Maximum=    1.5695E+00  at reduced coord.    0.0625    0.9792    0.0123
      Minimum=    8.1531E-04  at reduced coord.    0.0000    0.0000    0.5000
   Integrated=    4.8002E+01
 Magnetization (spin up - spin down) [el/Bohr^3]
      Maximum=    1.8271E-01  at reduced coord.    0.6111    0.7569    0.3395
      Minimum=   -1.8296E-03  at reduced coord.    0.9444    0.9375    0.0741
   Integrated=    3.9961E+00
 Relative magnetization (=zeta, between -1 and 1)
      Maximum=    2.2160E-01  at reduced coord.    0.6667    0.6736    0.3889
      Minimum=   -7.4464E-02  at reduced coord.    0.0139    0.9375    0.4630
 mkrho: echo density (plane-wave part only)
 Total kinetic energy density [Ha/Bohr^3]
      Maximum=    2.1095E+01  at reduced coord.    0.9931    0.0069    0.9753
      Minimum=    1.0783E-03  at reduced coord.    0.0000    0.5000    0.0000
   Integrated=    2.4646E+02
 Spin up density      [Ha/Bohr^3]
      Maximum=    1.0630E+01  at reduced coord.    0.0069    0.0069    0.9815
      Minimum=    5.1982E-04  at reduced coord.    0.9931    0.0000    0.5000
   Integrated=    1.2954E+02
 Spin down density    [Ha/Bohr^3]
      Maximum=    1.0469E+01  at reduced coord.    0.9861    0.0139    0.9753
      Minimum=    5.5204E-04  at reduced coord.    0.0000    0.5000    0.0000
   Integrated=    1.1692E+02
 Magnetization (spin up - spin down) [Ha/Bohr^3]
      Maximum=    1.6282E+00  at reduced coord.    0.6389    0.7153    0.3642
      Minimum=   -2.8295E-03  at reduced coord.    0.9444    0.9375    0.0864
   Integrated=    1.2619E+01
 Relative magnetization (=zeta, between -1 and 1)
      Maximum=    2.1490E-01  at reduced coord.    0.6875    0.7361    0.3642
      Minimum=   -4.5338E-02  at reduced coord.    0.9931    0.0417    0.5247
 Total charge density [el/Bohr^3]
      Maximum=    3.1600E+00  at reduced coord.    0.0556    0.0000    0.9938
      Minimum=    1.5246E-03  at reduced coord.    0.0000    0.0000    0.5000
   Integrated=    1.0000E+02
 Spin up density      [el/Bohr^3]
      Maximum=    1.6162E+00  at reduced coord.    0.9444    0.9653    0.9815
      Minimum=    7.0928E-04  at reduced coord.    0.0000    0.0000    0.5000
   Integrated=    5.1998E+01
 Spin down density    [el/Bohr^3]
      Maximum=    1.5695E+00  at reduced coord.    0.0625    0.9792    0.0123
      Minimum=    8.1531E-04  at reduced coord.    0.0000    0.0000    0.5000
   Integrated=    4.8002E+01
 Magnetization (spin up - spin down) [el/Bohr^3]
      Maximum=    1.8271E-01  at reduced coord.    0.6111    0.7569    0.3395
      Minimum=   -1.8296E-03  at reduced coord.    0.9444    0.9375    0.0741
   Integrated=    3.9961E+00
 Relative magnetization (=zeta, between -1 and 1)
      Maximum=    2.2160E-01  at reduced coord.    0.6667    0.6736    0.3889
      Minimum=   -7.4464E-02  at reduced coord.    0.0139    0.9375    0.4630
 ETOT  2  -456.84278110422    -4.95E-01 2.25E-02 6.46E+05 3.996
 scprqt: <Vxc>= -4.1182910E-01 hartree

 Pulay update with  1 previous iterations:
 mixing of old trial potential: alpha(m:m-4)=  0.338      0.662
{SCF_istep: 2 , Vnl|psi>: 650 , wall_time: ' 07:09 [minutes] '} <<< TIME

 ITER STEP NUMBER     3
 newocc: new Fermi energy is       0.099028 , with nelect=    100.000000, Number of bisection calls: 49
 mkrho: echo density (plane-wave part only)
 Total charge density [el/Bohr^3]
      Maximum=    3.0650E+00  at reduced coord.    0.0278    0.0278    0.9691
      Minimum=    1.4405E-03  at reduced coord.    0.0000    0.5000    0.0000
   Integrated=    1.0000E+02
 Spin up density      [el/Bohr^3]
      Maximum=    1.5650E+00  at reduced coord.    0.9375    0.9722    0.9753
      Minimum=    6.6261E-04  at reduced coord.    0.0000    0.5000    0.0000
   Integrated=    5.1101E+01
 Spin down density    [el/Bohr^3]
      Maximum=    1.5293E+00  at reduced coord.    0.0208    0.0278    0.9630
      Minimum=    7.7788E-04  at reduced coord.    0.0000    0.5000    0.0000
   Integrated=    4.8899E+01
 Magnetization (spin up - spin down) [el/Bohr^3]
      Maximum=    3.3440E-01  at reduced coord.    0.9306    0.9583    0.9753
      Minimum=   -2.3809E-03  at reduced coord.    0.1250    0.5764    0.5432
   Integrated=    2.2027E+00
 Relative magnetization (=zeta, between -1 and 1)
      Maximum=    1.8440E-01  at reduced coord.    0.0625    0.5903    0.6049
      Minimum=   -8.1990E-02  at reduced coord.    0.0139    0.9444    0.4691
 mkrho: echo density (plane-wave part only)
 Total kinetic energy density [Ha/Bohr^3]
      Maximum=    2.0227E+01  at reduced coord.    0.0139    0.9861    0.0185
      Minimum=    1.0565E-03  at reduced coord.    0.0000    0.0000    0.5000
   Integrated=    2.3888E+02
 Spin up density      [Ha/Bohr^3]
      Maximum=    1.0266E+01  at reduced coord.    0.0069    0.0000    0.0247
      Minimum=    4.9518E-04  at reduced coord.    0.0000    0.0000    0.5000
   Integrated=    1.2469E+02
 Spin down density    [Ha/Bohr^3]
      Maximum=    9.9946E+00  at reduced coord.    0.0139    0.9861    0.0185
      Minimum=    5.6103E-04  at reduced coord.    0.9931    0.0000    0.5000
   Integrated=    1.1418E+02
 Magnetization (spin up - spin down) [Ha/Bohr^3]
      Maximum=    1.2474E+00  at reduced coord.    0.9514    0.4653    0.4815
      Minimum=   -4.5236E-03  at reduced coord.    0.5139    0.8264    0.2407
   Integrated=    1.0510E+01
 Relative magnetization (=zeta, between -1 and 1)
      Maximum=    1.9087E-01  at reduced coord.    0.8889    0.3611    0.3333
      Minimum=   -7.8738E-02  at reduced coord.    0.6111    0.9097    0.3704
 Total charge density [el/Bohr^3]
      Maximum=    3.0650E+00  at reduced coord.    0.0278    0.0278    0.9691
      Minimum=    1.4405E-03  at reduced coord.    0.0000    0.5000    0.0000
   Integrated=    1.0000E+02
 Spin up density      [el/Bohr^3]
      Maximum=    1.5650E+00  at reduced coord.    0.9375    0.9722    0.9753
      Minimum=    6.6261E-04  at reduced coord.    0.0000    0.5000    0.0000
   Integrated=    5.1101E+01
 Spin down density    [el/Bohr^3]
      Maximum=    1.5293E+00  at reduced coord.    0.0208    0.0278    0.9630
      Minimum=    7.7788E-04  at reduced coord.    0.0000    0.5000    0.0000
   Integrated=    4.8899E+01
 Magnetization (spin up - spin down) [el/Bohr^3]
      Maximum=    3.3440E-01  at reduced coord.    0.9306    0.9583    0.9753
      Minimum=   -2.3809E-03  at reduced coord.    0.1250    0.5764    0.5432
   Integrated=    2.2027E+00
 Relative magnetization (=zeta, between -1 and 1)
      Maximum=    1.8440E-01  at reduced coord.    0.0625    0.5903    0.6049
      Minimum=   -8.1990E-02  at reduced coord.    0.0139    0.9444    0.4691
 ETOT  3  -458.64867736840    -1.81E+00 1.39E-02 2.15E+05 2.203
 scprqt: <Vxc>= -4.1287640E-01 hartree

 Pulay update with  2 previous iterations:
 mixing of old trial potential: alpha(m:m-4)=  0.306      0.153      0.540
{SCF_istep: 3 , Vnl|psi>: 312 , wall_time: ' 03:39 [minutes] '} <<< TIME

 ITER STEP NUMBER     4
 newocc: new Fermi energy is       0.099533 , with nelect=    100.000000, Number of bisection calls: 43
 mkrho: echo density (plane-wave part only)
 Total charge density [el/Bohr^3]
      Maximum=    3.0776E+00  at reduced coord.    0.9722    0.5278    0.5309
      Minimum=    1.4442E-03  at reduced coord.    0.0000    0.5000    0.0000
   Integrated=    1.0000E+02
 Spin up density      [el/Bohr^3]
      Maximum=    1.5844E+00  at reduced coord.    0.0556    0.4653    0.5185
      Minimum=    6.7048E-04  at reduced coord.    0.0000    0.5000    0.0000
   Integrated=    5.1013E+01
 Spin down density    [el/Bohr^3]
      Maximum=    1.5384E+00  at reduced coord.    0.0278    0.4722    0.4691
      Minimum=    7.7370E-04  at reduced coord.    0.0000    0.5000    0.0000
   Integrated=    4.8987E+01
 Magnetization (spin up - spin down) [el/Bohr^3]
      Maximum=    3.5400E-01  at reduced coord.    0.9236    0.5417    0.4691
      Minimum=   -8.6378E-03  at reduced coord.    0.9375    0.0903    0.9877
   Integrated=    2.0257E+00
 Relative magnetization (=zeta, between -1 and 1)
      Maximum=    1.9232E-01  at reduced coord.    0.9306    0.0903    0.8951
      Minimum=   -7.2254E-02  at reduced coord.    0.0208    0.5486    0.9691
 mkrho: echo density (plane-wave part only)
 Total kinetic energy density [Ha/Bohr^3]
      Maximum=    2.0283E+01  at reduced coord.    0.0069    0.5139    0.5185
      Minimum=    1.0574E-03  at reduced coord.    0.0000    0.5000    0.0000
   Integrated=    2.3910E+02
 Spin up density      [Ha/Bohr^3]
      Maximum=    1.0285E+01  at reduced coord.    0.0139    0.4792    0.5185
      Minimum=    4.9876E-04  at reduced coord.    0.0000    0.5000    0.0000
   Integrated=    1.2434E+02
 Spin down density    [Ha/Bohr^3]
      Maximum=    1.0034E+01  at reduced coord.    0.0139    0.5139    0.5185
      Minimum=    5.5859E-04  at reduced coord.    0.0000    0.5000    0.0000
   Integrated=    1.1476E+02
 Magnetization (spin up - spin down) [Ha/Bohr^3]
      Maximum=    1.2741E+00  at reduced coord.    0.9931    0.9861    0.0432
      Minimum=   -2.0626E-01  at reduced coord.    0.9653    0.4514    0.4444
   Integrated=    9.5806E+00
 Relative magnetization (=zeta, between -1 and 1)
      Maximum=    2.0459E-01  at reduced coord.    0.8264    0.5972    0.4321
      Minimum=   -5.7281E-02  at reduced coord.    0.9514    0.0139    0.5247
 Total charge density [el/Bohr^3]
      Maximum=    3.0776E+00  at reduced coord.    0.9722    0.5278    0.5309
      Minimum=    1.4442E-03  at reduced coord.    0.0000    0.5000    0.0000
   Integrated=    1.0000E+02
 Spin up density      [el/Bohr^3]
      Maximum=    1.5844E+00  at reduced coord.    0.0556    0.4653    0.5185
      Minimum=    6.7048E-04  at reduced coord.    0.0000    0.5000    0.0000
   Integrated=    5.1013E+01
 Spin down density    [el/Bohr^3]
      Maximum=    1.5384E+00  at reduced coord.    0.0278    0.4722    0.4691
      Minimum=    7.7370E-04  at reduced coord.    0.0000    0.5000    0.0000
   Integrated=    4.8987E+01
 Magnetization (spin up - spin down) [el/Bohr^3]
      Maximum=    3.5400E-01  at reduced coord.    0.9236    0.5417    0.4691
      Minimum=   -8.6378E-03  at reduced coord.    0.9375    0.0903    0.9877
   Integrated=    2.0257E+00
 Relative magnetization (=zeta, between -1 and 1)
      Maximum=    1.9232E-01  at reduced coord.    0.9306    0.0903    0.8951
      Minimum=   -7.2254E-02  at reduced coord.    0.0208    0.5486    0.9691
 ETOT  4  -458.62670187327     2.20E-02 6.39E-03 2.05E+05 2.026
 scprqt: <Vxc>= -4.1281080E-01 hartree

 Pulay update with  3 previous iterations:
 mixing of old trial potential: alpha(m:m-4)=  0.191      0.254      0.820E-01  0.472
{SCF_istep: 4 , Vnl|psi>: 318 , wall_time: ' 03:39 [minutes] '} <<< TIME

 ITER STEP NUMBER     5
 newocc: new Fermi energy is       0.100407 , with nelect=    100.000000, Number of bisection calls: 47
 mkrho: echo density (plane-wave part only)
 Total charge density [el/Bohr^3]
      Maximum=    3.0710E+00  at reduced coord.    0.0278    0.0278    0.9691
      Minimum=    1.4472E-03  at reduced coord.    0.0000    0.0000    0.5000
   Integrated=    1.0000E+02
 Spin up density      [el/Bohr^3]
      Maximum=    1.5782E+00  at reduced coord.    0.9375    0.9722    0.9753
      Minimum=    6.7476E-04  at reduced coord.    0.0000    0.0000    0.5000
   Integrated=    5.1118E+01
 Spin down density    [el/Bohr^3]
      Maximum=    1.5348E+00  at reduced coord.    0.0208    0.0278    0.9630
      Minimum=    7.7240E-04  at reduced coord.    0.0000    0.0000    0.5000
   Integrated=    4.8882E+01
 Magnetization (spin up - spin down) [el/Bohr^3]
      Maximum=    3.9466E-01  at reduced coord.    0.9306    0.9583    0.9753
      Minimum=   -4.0438E-03  at reduced coord.    0.0069    0.0000    0.0185
   Integrated=    2.2363E+00
 Relative magnetization (=zeta, between -1 and 1)
      Maximum=    2.1961E-01  at reduced coord.    0.0694    0.5903    0.6049
      Minimum=   -6.8756E-02  at reduced coord.    0.0208    0.9444    0.4691
 mkrho: echo density (plane-wave part only)
 Total kinetic energy density [Ha/Bohr^3]
      Maximum=    2.0170E+01  at reduced coord.    0.0139    0.9861    0.0185
      Minimum=    1.0567E-03  at reduced coord.    0.0000    0.5000    0.0000
   Integrated=    2.3894E+02
 Spin up density      [Ha/Bohr^3]
      Maximum=    1.0244E+01  at reduced coord.    0.9861    0.9792    0.9815
      Minimum=    5.0048E-04  at reduced coord.    0.0000    0.5000    0.0000
   Integrated=    1.2481E+02
 Spin down density    [Ha/Bohr^3]
      Maximum=    9.9604E+00  at reduced coord.    0.9931    0.0069    0.9815
      Minimum=    5.5619E-04  at reduced coord.    0.0000    0.5000    0.0000
   Integrated=    1.1414E+02
 Magnetization (spin up - spin down) [Ha/Bohr^3]
      Maximum=    1.3739E+00  at reduced coord.    0.9514    0.4653    0.4815
      Minimum=   -2.1438E-01  at reduced coord.    0.0347    0.9514    0.0556
   Integrated=    1.0670E+01
 Relative magnetization (=zeta, between -1 and 1)
      Maximum=    2.0949E-01  at reduced coord.    0.8264    0.9028    0.9383
      Minimum=   -5.4648E-02  at reduced coord.    0.0208    0.9722    0.4630
 Total charge density [el/Bohr^3]
      Maximum=    3.0710E+00  at reduced coord.    0.0278    0.0278    0.9691
      Minimum=    1.4472E-03  at reduced coord.    0.0000    0.0000    0.5000
   Integrated=    1.0000E+02
 Spin up density      [el/Bohr^3]
      Maximum=    1.5782E+00  at reduced coord.    0.9375    0.9722    0.9753
      Minimum=    6.7476E-04  at reduced coord.    0.0000    0.0000    0.5000
   Integrated=    5.1118E+01
 Spin down density    [el/Bohr^3]
      Maximum=    1.5348E+00  at reduced coord.    0.0208    0.0278    0.9630
      Minimum=    7.7240E-04  at reduced coord.    0.0000    0.0000    0.5000
   Integrated=    4.8882E+01
 Magnetization (spin up - spin down) [el/Bohr^3]
      Maximum=    3.9466E-01  at reduced coord.    0.9306    0.9583    0.9753
      Minimum=   -4.0438E-03  at reduced coord.    0.0069    0.0000    0.0185
   Integrated=    2.2363E+00
 Relative magnetization (=zeta, between -1 and 1)
      Maximum=    2.1961E-01  at reduced coord.    0.0694    0.5903    0.6049
      Minimum=   -6.8756E-02  at reduced coord.    0.0208    0.9444    0.4691
 ETOT  5  -458.73880042834    -1.12E-01 1.38E-03 1.63E+05 2.236
 scprqt: <Vxc>= -4.1274227E-01 hartree

 Pulay update with  4 previous iterations:
 mixing of old trial potential: alpha(m:m-4)=  0.893      0.183     -0.536      0.549E-01  0.405
{SCF_istep: 5 , Vnl|psi>: 312 , wall_time: ' 03:37 [minutes] '} <<< TIME

 ITER STEP NUMBER     6
 newocc: new Fermi energy is       0.102781 , with nelect=    100.000000, Number of bisection calls: 49
 mkrho: echo density (plane-wave part only)
 Total charge density [el/Bohr^3]
      Maximum=    3.0638E+00  at reduced coord.    0.9722    0.5278    0.5309
      Minimum=    1.4592E-03  at reduced coord.    0.0000    0.5000    0.0000
   Integrated=    1.0000E+02
 Spin up density      [el/Bohr^3]
      Maximum=    1.5686E+00  at reduced coord.    0.0625    0.4722    0.5247
      Minimum=    6.8730E-04  at reduced coord.    0.0000    0.5000    0.0000
   Integrated=    5.1875E+01
 Spin down density    [el/Bohr^3]
      Maximum=    1.5318E+00  at reduced coord.    0.0278    0.4722    0.4691
      Minimum=    7.7187E-04  at reduced coord.    0.0000    0.5000    0.0000
   Integrated=    4.8125E+01
 Magnetization (spin up - spin down) [el/Bohr^3]
      Maximum=    4.5581E-01  at reduced coord.    0.9236    0.5417    0.4691
      Minimum=   -5.4534E-03  at reduced coord.    0.9931    0.5000    0.4815
   Integrated=    3.7505E+00
 Relative magnetization (=zeta, between -1 and 1)
      Maximum=    3.0236E-01  at reduced coord.    0.0694    0.5903    0.6049
      Minimum=   -5.8346E-02  at reduced coord.    0.0347    0.5347    0.9753
 mkrho: echo density (plane-wave part only)
 Total kinetic energy density [Ha/Bohr^3]
      Maximum=    1.9754E+01  at reduced coord.    0.0069    0.5139    0.5123
      Minimum=    1.0604E-03  at reduced coord.    0.0000    0.0000    0.5000
   Integrated=    2.3862E+02
 Spin up density      [Ha/Bohr^3]
      Maximum=    1.0221E+01  at reduced coord.    0.0069    0.0000    0.0247
      Minimum=    5.0651E-04  at reduced coord.    0.0000    0.5000    0.0000
   Integrated=    1.2805E+02
 Spin down density    [Ha/Bohr^3]
      Maximum=    9.7988E+00  at reduced coord.    0.0000    0.5000    0.5000
      Minimum=    5.5366E-04  at reduced coord.    0.0000    0.0000    0.5000
   Integrated=    1.1057E+02
 Magnetization (spin up - spin down) [Ha/Bohr^3]
      Maximum=    2.2365E+00  at reduced coord.    0.9792    0.9792    0.0309
      Minimum=   -2.0641E-01  at reduced coord.    0.9583    0.4514    0.4383
   Integrated=    1.7482E+01
 Relative magnetization (=zeta, between -1 and 1)
      Maximum=    2.8752E-01  at reduced coord.    0.8889    0.3611    0.3333
      Minimum=   -4.5889E-02  at reduced coord.    0.9514    0.0139    0.5247
 Total charge density [el/Bohr^3]
      Maximum=    3.0638E+00  at reduced coord.    0.9722    0.5278    0.5309
      Minimum=    1.4592E-03  at reduced coord.    0.0000    0.5000    0.0000
   Integrated=    1.0000E+02
 Spin up density      [el/Bohr^3]
      Maximum=    1.5686E+00  at reduced coord.    0.0625    0.4722    0.5247
      Minimum=    6.8730E-04  at reduced coord.    0.0000    0.5000    0.0000
   Integrated=    5.1875E+01
 Spin down density    [el/Bohr^3]
      Maximum=    1.5318E+00  at reduced coord.    0.0278    0.4722    0.4691
      Minimum=    7.7187E-04  at reduced coord.    0.0000    0.5000    0.0000
   Integrated=    4.8125E+01
 Magnetization (spin up - spin down) [el/Bohr^3]
      Maximum=    4.5581E-01  at reduced coord.    0.9236    0.5417    0.4691
      Minimum=   -5.4534E-03  at reduced coord.    0.9931    0.5000    0.4815
   Integrated=    3.7505E+00
 Relative magnetization (=zeta, between -1 and 1)
      Maximum=    3.0236E-01  at reduced coord.    0.0694    0.5903    0.6049
      Minimum=   -5.8346E-02  at reduced coord.    0.0347    0.5347    0.9753
 ETOT  6  -458.98629936780    -2.47E-01 3.62E-03 9.82E+04 3.751
 scprqt: <Vxc>= -4.1271655E-01 hartree

 Pulay update with  5 previous iterations:
 mixing of old trial potential: alpha(m:m-4)=  0.357      0.638      0.413E-01 -0.478      0.600E-01
{SCF_istep: 6 , Vnl|psi>: 309 , wall_time: ' 03:35 [minutes] '} <<< TIME

 ITER STEP NUMBER     7
 newocc: new Fermi energy is       0.102971 , with nelect=    100.000000, Number of bisection calls: 47
 mkrho: echo density (plane-wave part only)
 Total charge density [el/Bohr^3]
      Maximum=    3.0684E+00  at reduced coord.    0.0278    0.0278    0.9691
      Minimum=    1.4621E-03  at reduced coord.    0.0000    0.5000    0.0000
   Integrated=    1.0000E+02
 Spin up density      [el/Bohr^3]
      Maximum=    1.5759E+00  at reduced coord.    0.9444    0.9653    0.9815
      Minimum=    6.9042E-04  at reduced coord.    0.0000    0.5000    0.0000
   Integrated=    5.1964E+01
 Spin down density    [el/Bohr^3]
      Maximum=    1.5362E+00  at reduced coord.    0.0278    0.0208    0.9691
      Minimum=    7.7164E-04  at reduced coord.    0.0000    0.5000    0.0000
   Integrated=    4.8036E+01
 Magnetization (spin up - spin down) [el/Bohr^3]
      Maximum=    4.8972E-01  at reduced coord.    0.0347    0.5417    0.4630
      Minimum=   -9.5572E-03  at reduced coord.    0.0208    0.0208    0.9691
   Integrated=    3.9289E+00
 Relative magnetization (=zeta, between -1 and 1)
      Maximum=    3.4229E-01  at reduced coord.    0.0694    0.5903    0.6049
      Minimum=   -5.5940E-02  at reduced coord.    0.9931    0.0000    0.4877
 mkrho: echo density (plane-wave part only)
 Total kinetic energy density [Ha/Bohr^3]
      Maximum=    1.9774E+01  at reduced coord.    0.0139    0.0139    0.0062
      Minimum=    1.0622E-03  at reduced coord.    0.0000    0.5000    0.0000
   Integrated=    2.3866E+02
 Spin up density      [Ha/Bohr^3]
      Maximum=    1.0239E+01  at reduced coord.    0.9931    0.9931    0.9753
      Minimum=    5.0809E-04  at reduced coord.    0.0000    0.5000    0.0000
   Integrated=    1.2841E+02
 Spin down density    [Ha/Bohr^3]
      Maximum=    9.8113E+00  at reduced coord.    0.0000    0.0000    0.0000
      Minimum=    5.5413E-04  at reduced coord.    0.0000    0.5000    0.0000
   Integrated=    1.1025E+02
 Magnetization (spin up - spin down) [Ha/Bohr^3]
      Maximum=    2.3900E+00  at reduced coord.    0.0208    0.4792    0.4691
      Minimum=   -2.1608E-01  at reduced coord.    0.0417    0.9514    0.0617
   Integrated=    1.8169E+01
 Relative magnetization (=zeta, between -1 and 1)
      Maximum=    3.0975E-01  at reduced coord.    0.8889    0.3611    0.3333
      Minimum=   -4.5042E-02  at reduced coord.    0.0208    0.9722    0.4630
 Total charge density [el/Bohr^3]
      Maximum=    3.0684E+00  at reduced coord.    0.0278    0.0278    0.9691
      Minimum=    1.4621E-03  at reduced coord.    0.0000    0.5000    0.0000
   Integrated=    1.0000E+02
 Spin up density      [el/Bohr^3]
      Maximum=    1.5759E+00  at reduced coord.    0.9444    0.9653    0.9815
      Minimum=    6.9042E-04  at reduced coord.    0.0000    0.5000    0.0000
   Integrated=    5.1964E+01
 Spin down density    [el/Bohr^3]
      Maximum=    1.5362E+00  at reduced coord.    0.0278    0.0208    0.9691
      Minimum=    7.7164E-04  at reduced coord.    0.0000    0.5000    0.0000
   Integrated=    4.8036E+01
 Magnetization (spin up - spin down) [el/Bohr^3]
      Maximum=    4.8972E-01  at reduced coord.    0.0347    0.5417    0.4630
      Minimum=   -9.5572E-03  at reduced coord.    0.0208    0.0208    0.9691
   Integrated=    3.9289E+00
 Relative magnetization (=zeta, between -1 and 1)
      Maximum=    3.4229E-01  at reduced coord.    0.0694    0.5903    0.6049
      Minimum=   -5.5940E-02  at reduced coord.    0.9931    0.0000    0.4877
 ETOT  7  -459.00839731028    -2.21E-02 7.11E-04 8.92E+04 3.929
 scprqt: <Vxc>= -4.1269622E-01 hartree

 Pulay update with  6 previous iterations:
 mixing of old trial potential: alpha(m:m-4)=   1.15     -0.798      0.626      0.927E-01 -0.469
{SCF_istep: 7 , Vnl|psi>: 298 , wall_time: ' 03:30 [minutes] '} <<< TIME

 ITER STEP NUMBER     8
 newocc: new Fermi energy is       0.104131 , with nelect=    100.000000, Number of bisection calls: 41
 mkrho: echo density (plane-wave part only)
 Total charge density [el/Bohr^3]
      Maximum=    3.0679E+00  at reduced coord.    0.0278    0.0278    0.9691
      Minimum=    1.4700E-03  at reduced coord.    0.0000    0.5000    0.0000
   Integrated=    1.0000E+02
 Spin up density      [el/Bohr^3]
      Maximum=    1.5801E+00  at reduced coord.    0.9444    0.9653    0.9815
      Minimum=    6.9543E-04  at reduced coord.    0.0000    0.0000    0.5000
   Integrated=    5.2000E+01
 Spin down density    [el/Bohr^3]
      Maximum=    1.5373E+00  at reduced coord.    0.0278    0.4792    0.4691
      Minimum=    7.7450E-04  at reduced coord.    0.0000    0.5000    0.0000
   Integrated=    4.8000E+01
 Magnetization (spin up - spin down) [el/Bohr^3]
      Maximum=    5.1310E-01  at reduced coord.    0.0347    0.5417    0.4630
      Minimum=   -1.1564E-02  at reduced coord.    0.0208    0.0208    0.9691
   Integrated=    3.9992E+00
 Relative magnetization (=zeta, between -1 and 1)
      Maximum=    3.5863E-01  at reduced coord.    0.0694    0.5903    0.6049
      Minimum=   -5.4253E-02  at reduced coord.    0.0417    0.9653    0.4753
 mkrho: echo density (plane-wave part only)
 Total kinetic energy density [Ha/Bohr^3]
      Maximum=    1.9758E+01  at reduced coord.    0.0139    0.4861    0.5062
      Minimum=    1.0660E-03  at reduced coord.    0.0000    0.5000    0.0000
   Integrated=    2.3848E+02
 Spin up density      [Ha/Bohr^3]
      Maximum=    1.0237E+01  at reduced coord.    0.0000    0.4861    0.5185
      Minimum=    5.1042E-04  at reduced coord.    0.0000    0.5000    0.0000
   Integrated=    1.2859E+02
 Spin down density    [Ha/Bohr^3]
      Maximum=    9.8209E+00  at reduced coord.    0.0000    0.5000    0.5000
      Minimum=    5.5557E-04  at reduced coord.    0.0000    0.0000    0.5000
   Integrated=    1.0989E+02
 Magnetization (spin up - spin down) [Ha/Bohr^3]
      Maximum=    2.4804E+00  at reduced coord.    0.0208    0.4792    0.4691
      Minimum=   -1.7739E-01  at reduced coord.    0.0417    0.9514    0.0617
   Integrated=    1.8703E+01
 Relative magnetization (=zeta, between -1 and 1)
      Maximum=    3.1321E-01  at reduced coord.    0.8958    0.3611    0.3395
      Minimum=   -4.4170E-02  at reduced coord.    0.0208    0.9722    0.4630
 Total charge density [el/Bohr^3]
      Maximum=    3.0679E+00  at reduced coord.    0.0278    0.0278    0.9691
      Minimum=    1.4700E-03  at reduced coord.    0.0000    0.5000    0.0000
   Integrated=    1.0000E+02
 Spin up density      [el/Bohr^3]
      Maximum=    1.5801E+00  at reduced coord.    0.9444    0.9653    0.9815
      Minimum=    6.9543E-04  at reduced coord.    0.0000    0.0000    0.5000
   Integrated=    5.2000E+01
 Spin down density    [el/Bohr^3]
      Maximum=    1.5373E+00  at reduced coord.    0.0278    0.4792    0.4691
      Minimum=    7.7450E-04  at reduced coord.    0.0000    0.5000    0.0000
   Integrated=    4.8000E+01
 Magnetization (spin up - spin down) [el/Bohr^3]
      Maximum=    5.1310E-01  at reduced coord.    0.0347    0.5417    0.4630
      Minimum=   -1.1564E-02  at reduced coord.    0.0208    0.0208    0.9691
   Integrated=    3.9992E+00
 Relative magnetization (=zeta, between -1 and 1)
      Maximum=    3.5863E-01  at reduced coord.    0.0694    0.5903    0.6049
      Minimum=   -5.4253E-02  at reduced coord.    0.0417    0.9653    0.4753
 ETOT  8  -459.03438093522    -2.60E-02 2.07E-03 7.57E+04 3.999
 scprqt: <Vxc>= -4.1277717E-01 hartree

 Pulay update with  7 previous iterations:
 mixing of old trial potential: alpha(m:m-4)=   3.00      -2.01     -0.434      0.556     -0.977E-02
{SCF_istep: 8 , Vnl|psi>: 319 , wall_time: ' 03:41 [minutes] '} <<< TIME

 ITER STEP NUMBER     9
 newocc: new Fermi energy is       0.106929 , with nelect=    100.000000, Number of bisection calls: 23
 mkrho: echo density (plane-wave part only)
 Total charge density [el/Bohr^3]
      Maximum=    3.0746E+00  at reduced coord.    0.0278    0.0278    0.9691
      Minimum=    1.4865E-03  at reduced coord.    0.0000    0.0000    0.5000
   Integrated=    1.0000E+02
 Spin up density      [el/Bohr^3]
      Maximum=    1.5900E+00  at reduced coord.    0.9444    0.9653    0.9815
      Minimum=    7.0867E-04  at reduced coord.    0.0000    0.0000    0.5000
   Integrated=    5.2000E+01
 Spin down density    [el/Bohr^3]
      Maximum=    1.5423E+00  at reduced coord.    0.0278    0.0208    0.9691
      Minimum=    7.7780E-04  at reduced coord.    0.0000    0.0000    0.5000
   Integrated=    4.8000E+01
 Magnetization (spin up - spin down) [el/Bohr^3]
      Maximum=    5.6027E-01  at reduced coord.    0.0347    0.5417    0.4630
      Minimum=   -1.7057E-02  at reduced coord.    0.0208    0.0208    0.9691
   Integrated=    4.0000E+00
 Relative magnetization (=zeta, between -1 and 1)
      Maximum=    4.0303E-01  at reduced coord.    0.0694    0.5903    0.6049
      Minimum=   -4.7372E-02  at reduced coord.    0.0278    0.9444    0.4691
 mkrho: echo density (plane-wave part only)
 Total kinetic energy density [Ha/Bohr^3]
      Maximum=    1.9732E+01  at reduced coord.    0.0139    0.0139    0.0062
      Minimum=    1.0739E-03  at reduced coord.    0.0000    0.0000    0.5000
   Integrated=    2.3822E+02
 Spin up density      [Ha/Bohr^3]
      Maximum=    1.0256E+01  at reduced coord.    0.9931    0.9931    0.9753
      Minimum=    5.1696E-04  at reduced coord.    0.0000    0.0000    0.5000
   Integrated=    1.2878E+02
 Spin down density    [Ha/Bohr^3]
      Maximum=    9.8440E+00  at reduced coord.    0.0000    0.5000    0.5000
      Minimum=    5.5698E-04  at reduced coord.    0.0000    0.0000    0.5000
   Integrated=    1.0944E+02
 Magnetization (spin up - spin down) [Ha/Bohr^3]
      Maximum=    2.6538E+00  at reduced coord.    0.0208    0.4792    0.4691
      Minimum=   -1.7614E-01  at reduced coord.    0.0000    0.5000    0.5000
   Integrated=    1.9339E+01
 Relative magnetization (=zeta, between -1 and 1)
      Maximum=    3.1435E-01  at reduced coord.    0.8958    0.3611    0.3395
      Minimum=   -3.9262E-02  at reduced coord.    0.0208    0.9722    0.4630
 Total charge density [el/Bohr^3]
      Maximum=    3.0746E+00  at reduced coord.    0.0278    0.0278    0.9691
      Minimum=    1.4865E-03  at reduced coord.    0.0000    0.0000    0.5000
   Integrated=    1.0000E+02
 Spin up density      [el/Bohr^3]
      Maximum=    1.5900E+00  at reduced coord.    0.9444    0.9653    0.9815
      Minimum=    7.0867E-04  at reduced coord.    0.0000    0.0000    0.5000
   Integrated=    5.2000E+01
 Spin down density    [el/Bohr^3]
      Maximum=    1.5423E+00  at reduced coord.    0.0278    0.0208    0.9691
      Minimum=    7.7780E-04  at reduced coord.    0.0000    0.0000    0.5000
   Integrated=    4.8000E+01
 Magnetization (spin up - spin down) [el/Bohr^3]
      Maximum=    5.6027E-01  at reduced coord.    0.0347    0.5417    0.4630
      Minimum=   -1.7057E-02  at reduced coord.    0.0208    0.0208    0.9691
   Integrated=    4.0000E+00
 Relative magnetization (=zeta, between -1 and 1)
      Maximum=    4.0303E-01  at reduced coord.    0.0694    0.5903    0.6049
      Minimum=   -4.7372E-02  at reduced coord.    0.0278    0.9444    0.4691
 ETOT  9  -459.07847745324    -4.41E-02 5.65E-04 4.35E+04 4.000
 scprqt: <Vxc>= -4.1289063E-01 hartree

 Pulay update with  7 previous iterations:
 mixing of old trial potential: alpha(m:m-4)=   2.60      -1.85       1.61      -1.13      0.264
{SCF_istep: 9 , Vnl|psi>: 319 , wall_time: ' 03:41 [minutes] '} <<< TIME

 ITER STEP NUMBER    10
 newocc: new Fermi energy is       0.112989 , with nelect=    100.000000, Number of bisection calls: 6
 mkrho: echo density (plane-wave part only)
 Total charge density [el/Bohr^3]
      Maximum=    3.0831E+00  at reduced coord.    0.9722    0.5278    0.5309
      Minimum=    1.5254E-03  at reduced coord.    0.0000    0.0000    0.5000
   Integrated=    1.0000E+02
 Spin up density      [el/Bohr^3]
      Maximum=    1.6097E+00  at reduced coord.    0.0556    0.4653    0.5185
      Minimum=    7.4709E-04  at reduced coord.    0.0000    0.0000    0.5000
   Integrated=    5.2000E+01
 Spin down density    [el/Bohr^3]
      Maximum=    1.5529E+00  at reduced coord.    0.9722    0.5208    0.5309
      Minimum=    7.7835E-04  at reduced coord.    0.0000    0.0000    0.5000
   Integrated=    4.8000E+01
 Magnetization (spin up - spin down) [el/Bohr^3]
      Maximum=    6.5515E-01  at reduced coord.    0.9236    0.9583    0.9691
      Minimum=   -2.9131E-02  at reduced coord.    0.0208    0.0208    0.9691
   Integrated=    4.0000E+00
 Relative magnetization (=zeta, between -1 and 1)
      Maximum=    4.8423E-01  at reduced coord.    0.9306    0.0903    0.8951
      Minimum=   -3.1050E-02  at reduced coord.    0.1667    0.4028    0.7346
 mkrho: echo density (plane-wave part only)
 Total kinetic energy density [Ha/Bohr^3]
      Maximum=    1.9694E+01  at reduced coord.    0.9931    0.4861    0.4877
      Minimum=    1.0896E-03  at reduced coord.    0.0000    0.0000    0.5000
   Integrated=    2.3779E+02
 Spin up density      [Ha/Bohr^3]
      Maximum=    1.0297E+01  at reduced coord.    0.0069    0.5278    0.5062
      Minimum=    5.3424E-04  at reduced coord.    0.0000    0.0000    0.5000
   Integrated=    1.2913E+02
 Spin down density    [Ha/Bohr^3]
      Maximum=    9.8904E+00  at reduced coord.    0.0000    0.5000    0.5000
      Minimum=    5.5540E-04  at reduced coord.    0.0000    0.0000    0.5000
   Integrated=    1.0865E+02
 Magnetization (spin up - spin down) [Ha/Bohr^3]
      Maximum=    2.9712E+00  at reduced coord.    0.9792    0.9792    0.0309
      Minimum=   -2.9691E-01  at reduced coord.    0.0000    0.5000    0.5000
   Integrated=    2.0476E+01
 Relative magnetization (=zeta, between -1 and 1)
      Maximum=    3.2113E-01  at reduced coord.    0.0625    0.5903    0.4198
      Minimum=   -2.7762E-02  at reduced coord.    0.1736    0.3958    0.8086
 Total charge density [el/Bohr^3]
      Maximum=    3.0831E+00  at reduced coord.    0.9722    0.5278    0.5309
      Minimum=    1.5254E-03  at reduced coord.    0.0000    0.0000    0.5000
   Integrated=    1.0000E+02
 Spin up density      [el/Bohr^3]
      Maximum=    1.6097E+00  at reduced coord.    0.0556    0.4653    0.5185
      Minimum=    7.4709E-04  at reduced coord.    0.0000    0.0000    0.5000
   Integrated=    5.2000E+01
 Spin down density    [el/Bohr^3]
      Maximum=    1.5529E+00  at reduced coord.    0.9722    0.5208    0.5309
      Minimum=    7.7835E-04  at reduced coord.    0.0000    0.0000    0.5000
   Integrated=    4.8000E+01
 Magnetization (spin up - spin down) [el/Bohr^3]
      Maximum=    6.5515E-01  at reduced coord.    0.9236    0.9583    0.9691
      Minimum=   -2.9131E-02  at reduced coord.    0.0208    0.0208    0.9691
   Integrated=    4.0000E+00
 Relative magnetization (=zeta, between -1 and 1)
      Maximum=    4.8423E-01  at reduced coord.    0.9306    0.0903    0.8951
      Minimum=   -3.1050E-02  at reduced coord.    0.1667    0.4028    0.7346
 ETOT 10  -459.13449966132    -5.60E-02 2.86E-03 2.02E+04 4.000
 scprqt: <Vxc>= -4.1289095E-01 hartree

 Pulay update with  7 previous iterations:
 mixing of old trial potential: alpha(m:m-4)=  0.860     -0.350      0.429       1.07     -0.806
{SCF_istep: 10 , Vnl|psi>: 319 , wall_time: ' 03:41 [minutes] '} <<< TIME

 ITER STEP NUMBER    11
 newocc: new Fermi energy is       0.115049 , with nelect=    100.000000, Number of bisection calls: 6
 mkrho: echo density (plane-wave part only)
 Total charge density [el/Bohr^3]
      Maximum=    3.0678E+00  at reduced coord.    0.9722    0.5278    0.5309
      Minimum=    1.5119E-03  at reduced coord.    0.0000    0.0000    0.5000
   Integrated=    1.0000E+02
 Spin up density      [el/Bohr^3]
      Maximum=    1.6030E+00  at reduced coord.    0.9444    0.9653    0.9815
      Minimum=    7.4211E-04  at reduced coord.    0.0000    0.0000    0.5000
   Integrated=    5.2000E+01
 Spin down density    [el/Bohr^3]
      Maximum=    1.5442E+00  at reduced coord.    0.0278    0.4792    0.4691
      Minimum=    7.6964E-04  at reduced coord.    0.0000    0.5000    0.0000
   Integrated=    4.8000E+01
 Magnetization (spin up - spin down) [el/Bohr^3]
      Maximum=    6.6280E-01  at reduced coord.    0.0764    0.0417    0.0309
      Minimum=   -2.6994E-02  at reduced coord.    0.0208    0.0208    0.9691
   Integrated=    4.0000E+00
 Relative magnetization (=zeta, between -1 and 1)
      Maximum=    5.0078E-01  at reduced coord.    0.9236    0.0972    0.8889
      Minimum=   -3.1748E-02  at reduced coord.    0.1667    0.4028    0.7346
 mkrho: echo density (plane-wave part only)
 Total kinetic energy density [Ha/Bohr^3]
      Maximum=    1.9595E+01  at reduced coord.    0.0000    0.5069    0.4877
      Minimum=    1.0811E-03  at reduced coord.    0.0000    0.0000    0.5000
   Integrated=    2.3731E+02
 Spin up density      [Ha/Bohr^3]
      Maximum=    1.0236E+01  at reduced coord.    0.9931    0.4722    0.4938
      Minimum=    5.3165E-04  at reduced coord.    0.0000    0.0000    0.5000
   Integrated=    1.2889E+02
 Spin down density    [Ha/Bohr^3]
      Maximum=    9.8446E+00  at reduced coord.    0.0000    0.5000    0.5000
      Minimum=    5.4949E-04  at reduced coord.    0.0000    0.0000    0.5000
   Integrated=    1.0842E+02
 Magnetization (spin up - spin down) [Ha/Bohr^3]
      Maximum=    3.0060E+00  at reduced coord.    0.0208    0.0208    0.9691
      Minimum=   -2.8609E-01  at reduced coord.    0.0000    0.5000    0.5000
   Integrated=    2.0465E+01
 Relative magnetization (=zeta, between -1 and 1)
      Maximum=    3.2588E-01  at reduced coord.    0.0833    0.6042    0.6296
      Minimum=   -2.6518E-02  at reduced coord.    0.1944    0.4028    0.8086
 Total charge density [el/Bohr^3]
      Maximum=    3.0678E+00  at reduced coord.    0.9722    0.5278    0.5309
      Minimum=    1.5119E-03  at reduced coord.    0.0000    0.0000    0.5000
   Integrated=    1.0000E+02
 Spin up density      [el/Bohr^3]
      Maximum=    1.6030E+00  at reduced coord.    0.9444    0.9653    0.9815
      Minimum=    7.4211E-04  at reduced coord.    0.0000    0.0000    0.5000
   Integrated=    5.2000E+01
 Spin down density    [el/Bohr^3]
      Maximum=    1.5442E+00  at reduced coord.    0.0278    0.4792    0.4691
      Minimum=    7.6964E-04  at reduced coord.    0.0000    0.5000    0.0000
   Integrated=    4.8000E+01
 Magnetization (spin up - spin down) [el/Bohr^3]
      Maximum=    6.6280E-01  at reduced coord.    0.0764    0.0417    0.0309
      Minimum=   -2.6994E-02  at reduced coord.    0.0208    0.0208    0.9691
   Integrated=    4.0000E+00
 Relative magnetization (=zeta, between -1 and 1)
      Maximum=    5.0078E-01  at reduced coord.    0.9236    0.0972    0.8889
      Minimum=   -3.1748E-02  at reduced coord.    0.1667    0.4028    0.7346
 ETOT 11  -459.14018431192    -5.68E-03 1.92E-03 1.28E+04 4.000
 scprqt: <Vxc>= -4.1273527E-01 hartree

 Pulay update with  7 previous iterations:
 mixing of old trial potential: alpha(m:m-4)=  0.661      0.234     -0.178     -0.189       1.14
{SCF_istep: 11 , Vnl|psi>: 319 , wall_time: ' 03:41 [minutes] '} <<< TIME

 ITER STEP NUMBER    12
 newocc: new Fermi energy is       0.115127 , with nelect=    100.000000, Number of bisection calls: 6
 mkrho: echo density (plane-wave part only)
 Total charge density [el/Bohr^3]
      Maximum=    3.0669E+00  at reduced coord.    0.9722    0.5278    0.5309
      Minimum=    1.5084E-03  at reduced coord.    0.0000    0.5000    0.0000
   Integrated=    1.0000E+02
 Spin up density      [el/Bohr^3]
      Maximum=    1.6024E+00  at reduced coord.    0.0556    0.4653    0.5185
      Minimum=    7.4013E-04  at reduced coord.    0.0000    0.0000    0.5000
   Integrated=    5.2000E+01
 Spin down density    [el/Bohr^3]
      Maximum=    1.5432E+00  at reduced coord.    0.0278    0.4792    0.4691
      Minimum=    7.6806E-04  at reduced coord.    0.0000    0.5000    0.0000
   Integrated=    4.8000E+01
 Magnetization (spin up - spin down) [el/Bohr^3]
      Maximum=    6.5822E-01  at reduced coord.    0.9236    0.9583    0.9691
      Minimum=   -2.5766E-02  at reduced coord.    0.0208    0.0208    0.9691
   Integrated=    4.0000E+00
 Relative magnetization (=zeta, between -1 and 1)
      Maximum=    5.0022E-01  at reduced coord.    0.9236    0.0972    0.8889
      Minimum=   -3.1254E-02  at reduced coord.    0.1667    0.4028    0.7346
 mkrho: echo density (plane-wave part only)
 Total kinetic energy density [Ha/Bohr^3]
      Maximum=    1.9596E+01  at reduced coord.    0.0000    0.5069    0.4877
      Minimum=    1.0793E-03  at reduced coord.    0.0000    0.5000    0.0000
   Integrated=    2.3732E+02
 Spin up density      [Ha/Bohr^3]
      Maximum=    1.0232E+01  at reduced coord.    0.9931    0.4931    0.4753
      Minimum=    5.3064E-04  at reduced coord.    0.0000    0.5000    0.0000
   Integrated=    1.2886E+02
 Spin down density    [Ha/Bohr^3]
      Maximum=    9.8428E+00  at reduced coord.    0.0000    0.5000    0.5000
      Minimum=    5.4870E-04  at reduced coord.    0.0000    0.5000    0.0000
   Integrated=    1.0846E+02
 Magnetization (spin up - spin down) [Ha/Bohr^3]
      Maximum=    3.0024E+00  at reduced coord.    0.9792    0.9792    0.0309
      Minimum=   -2.7550E-01  at reduced coord.    0.0000    0.5000    0.5000
   Integrated=    2.0408E+01
 Relative magnetization (=zeta, between -1 and 1)
      Maximum=    3.2292E-01  at reduced coord.    0.0833    0.6042    0.6296
      Minimum=   -2.5703E-02  at reduced coord.    0.1944    0.4028    0.8086
 Total charge density [el/Bohr^3]
      Maximum=    3.0669E+00  at reduced coord.    0.9722    0.5278    0.5309
      Minimum=    1.5084E-03  at reduced coord.    0.0000    0.5000    0.0000
   Integrated=    1.0000E+02
 Spin up density      [el/Bohr^3]
      Maximum=    1.6024E+00  at reduced coord.    0.0556    0.4653    0.5185
      Minimum=    7.4013E-04  at reduced coord.    0.0000    0.0000    0.5000
   Integrated=    5.2000E+01
 Spin down density    [el/Bohr^3]
      Maximum=    1.5432E+00  at reduced coord.    0.0278    0.4792    0.4691
      Minimum=    7.6806E-04  at reduced coord.    0.0000    0.5000    0.0000
   Integrated=    4.8000E+01
 Magnetization (spin up - spin down) [el/Bohr^3]
      Maximum=    6.5822E-01  at reduced coord.    0.9236    0.9583    0.9691
      Minimum=   -2.5766E-02  at reduced coord.    0.0208    0.0208    0.9691
   Integrated=    4.0000E+00
 Relative magnetization (=zeta, between -1 and 1)
      Maximum=    5.0022E-01  at reduced coord.    0.9236    0.0972    0.8889
      Minimum=   -3.1254E-02  at reduced coord.    0.1667    0.4028    0.7346
 ETOT 12  -459.14023307452    -4.88E-05 7.48E-04 7.33E+03 4.000
 scprqt: <Vxc>= -4.1270841E-01 hartree

 Pulay update with  7 previous iterations:
 mixing of old trial potential: alpha(m:m-4)=   2.99      -2.03      0.188      0.124E-01  -1.43
{SCF_istep: 12 , Vnl|psi>: 318 , wall_time: ' 03:40 [minutes] '} <<< TIME

 ITER STEP NUMBER    13
 newocc: new Fermi energy is       0.114356 , with nelect=    100.000000, Number of bisection calls: 6
 mkrho: echo density (plane-wave part only)
 Total charge density [el/Bohr^3]
      Maximum=    3.0711E+00  at reduced coord.    0.0278    0.0278    0.9691
      Minimum=    1.5162E-03  at reduced coord.    0.0000    0.5000    0.0000
   Integrated=    1.0000E+02
 Spin up density      [el/Bohr^3]
      Maximum=    1.6045E+00  at reduced coord.    0.9444    0.9653    0.9815
      Minimum=    7.4633E-04  at reduced coord.    0.0000    0.5000    0.0000
   Integrated=    5.2000E+01
 Spin down density    [el/Bohr^3]
      Maximum=    1.5434E+00  at reduced coord.    0.0278    0.4792    0.4691
      Minimum=    7.6983E-04  at reduced coord.    0.0000    0.5000    0.0000
   Integrated=    4.8000E+01
 Magnetization (spin up - spin down) [el/Bohr^3]
      Maximum=    6.5316E-01  at reduced coord.    0.0347    0.5417    0.4630
      Minimum=   -2.4533E-02  at reduced coord.    0.0208    0.0208    0.9753
   Integrated=    4.0000E+00
 Relative magnetization (=zeta, between -1 and 1)
      Maximum=    4.9707E-01  at reduced coord.    0.0694    0.5903    0.6111
      Minimum=   -2.9860E-02  at reduced coord.    0.1528    0.4167    0.7160
 mkrho: echo density (plane-wave part only)
 Total kinetic energy density [Ha/Bohr^3]
      Maximum=    1.9623E+01  at reduced coord.    0.0000    0.9931    0.9877
      Minimum=    1.0828E-03  at reduced coord.    0.0000    0.5000    0.0000
   Integrated=    2.3750E+02
 Spin up density      [Ha/Bohr^3]
      Maximum=    1.0244E+01  at reduced coord.    0.0069    0.9931    0.0247
      Minimum=    5.3390E-04  at reduced coord.    0.0000    0.5000    0.0000
   Integrated=    1.2891E+02
 Spin down density    [Ha/Bohr^3]
      Maximum=    9.8536E+00  at reduced coord.    0.0000    0.0000    0.0000
      Minimum=    5.4887E-04  at reduced coord.    0.0000    0.5000    0.0000
   Integrated=    1.0859E+02
 Magnetization (spin up - spin down) [Ha/Bohr^3]
      Maximum=    3.0011E+00  at reduced coord.    0.9792    0.9792    0.0309
      Minimum=   -2.7306E-01  at reduced coord.    0.0000    0.5000    0.5000
   Integrated=    2.0313E+01
 Relative magnetization (=zeta, between -1 and 1)
      Maximum=    3.1913E-01  at reduced coord.    0.0694    0.9097    0.9198
      Minimum=   -2.2359E-02  at reduced coord.    0.2014    0.4028    0.8086
 Total charge density [el/Bohr^3]
      Maximum=    3.0711E+00  at reduced coord.    0.0278    0.0278    0.9691
      Minimum=    1.5162E-03  at reduced coord.    0.0000    0.5000    0.0000
   Integrated=    1.0000E+02
 Spin up density      [el/Bohr^3]
      Maximum=    1.6045E+00  at reduced coord.    0.9444    0.9653    0.9815
      Minimum=    7.4633E-04  at reduced coord.    0.0000    0.5000    0.0000
[...]
                       1.4171506218E-03 -4.3493971771E-03 -9.6958841286E-04
                      -1.4041586083E-03 -4.3670129871E-03 -9.5853523722E-04
                      -1.4126539784E-03  4.3581655288E-03  9.6797912746E-04
                       2.7608468985E-04  2.6890857665E-03 -1.0904291938E-03
                       2.8662725811E-04 -2.7003687017E-03  1.0860570183E-03
                      -2.7227681954E-04 -2.6890105414E-03  1.0923603800E-03
                      -2.9046323902E-04  2.6999589167E-03 -1.0873464301E-03
                      -7.2976726883E-04 -5.1057710836E-04 -7.4597782090E-05
                      -7.3967349086E-04  5.0608153783E-04  8.3498149936E-05
                       7.3312751831E-04  5.0888635954E-04  7.7721323643E-05
                       7.3709687848E-04 -5.0838536449E-04 -8.3964348416E-05
-          fftalg         312
              ixc     -263267
              kpt      2.50000000E-01  2.50000000E-01  2.50000000E-01
                      -2.50000000E-01  2.50000000E-01  2.50000000E-01
                       2.50000000E-01 -2.50000000E-01  2.50000000E-01
                      -2.50000000E-01 -2.50000000E-01  2.50000000E-01
         kptrlatt        2    0    0      0    2    0      0    0    2
          kptrlen      1.90329546E+01
P           mkmem           1
            natom          14
            nband          65
            ngfft         144     144     162
             nkpt           4
-        np_spkpt           8
           nspden           2
           nsppol           2
            nstep          60
             nsym           1
           ntypat           3
              occ      1.000000  1.000000  1.000000  1.000000  1.000000  1.000000
                       1.000000  1.000000  1.000000  1.000000  1.000000  1.000000
                       1.000000  1.000000  1.000000  1.000000  1.000000  1.000000
                       1.000000  1.000000  1.000000  1.000000  1.000000  1.000000
                       1.000000  1.000000  1.000000  1.000000  1.000000  1.000000
                       1.000000  1.000000  1.000000  1.000000  1.000000  1.000000
                       1.000000  1.000000  1.000000  1.000000  1.000000  1.000000
                       1.000000  1.000000  1.000000  1.000000  1.000000  1.000000
                       1.000000  1.000000  1.000000  1.000000  0.000000  0.000000
                       0.000000  0.000000  0.000000  0.000000  0.000000  0.000000
                       0.000000  0.000000  0.000000  0.000000  0.000000
                       1.000000  1.000000  1.000000  1.000000  1.000000  1.000000
                       1.000000  1.000000  1.000000  1.000000  1.000000  1.000000
                       1.000000  1.000000  1.000000  1.000000  1.000000  1.000000
                       1.000000  1.000000  1.000000  1.000000  1.000000  1.000000
                       1.000000  1.000000  1.000000  1.000000  1.000000  1.000000
                       1.000000  1.000000  1.000000  1.000000  1.000000  1.000000
                       1.000000  1.000000  1.000000  1.000000  1.000000  1.000000
                       1.000000  1.000000  1.000000  1.000000  1.000000  1.000000
                       1.000000  1.000000  1.000000  1.000000  0.000000  0.000000
                       0.000000  0.000000  0.000000  0.000000  0.000000  0.000000
                       0.000000  0.000000  0.000000  0.000000  0.000000
                       1.000000  1.000000  1.000000  1.000000  1.000000  1.000000
                       1.000000  1.000000  1.000000  1.000000  1.000000  1.000000
                       1.000000  1.000000  1.000000  1.000000  1.000000  1.000000
                       1.000000  1.000000  1.000000  1.000000  1.000000  1.000000
                       1.000000  1.000000  1.000000  1.000000  1.000000  1.000000
                       1.000000  1.000000  1.000000  1.000000  1.000000  1.000000
                       1.000000  1.000000  1.000000  1.000000  1.000000  1.000000
                       1.000000  1.000000  1.000000  1.000000  1.000000  1.000000
                       1.000000  1.000000  1.000000  1.000000  0.000000  0.000000
                       0.000000  0.000000  0.000000  0.000000  0.000000  0.000000
                       0.000000  0.000000  0.000000  0.000000  0.000000
                       1.000000  1.000000  1.000000  1.000000  1.000000  1.000000
                       1.000000  1.000000  1.000000  1.000000  1.000000  1.000000
                       1.000000  1.000000  1.000000  1.000000  1.000000  1.000000
                       1.000000  1.000000  1.000000  1.000000  1.000000  1.000000
                       1.000000  1.000000  1.000000  1.000000  1.000000  1.000000
                       1.000000  1.000000  1.000000  1.000000  1.000000  1.000000
                       1.000000  1.000000  1.000000  1.000000  1.000000  1.000000
                       1.000000  1.000000  1.000000  1.000000  1.000000  1.000000
                       1.000000  1.000000  1.000000  1.000000  0.000000  0.000000
                       0.000000  0.000000  0.000000  0.000000  0.000000  0.000000
                       0.000000  0.000000  0.000000  0.000000  0.000000
                       1.000000  1.000000  1.000000  1.000000  1.000000  1.000000
                       1.000000  1.000000  1.000000  1.000000  1.000000  1.000000
                       1.000000  1.000000  1.000000  1.000000  1.000000  1.000000
                       1.000000  1.000000  1.000000  1.000000  1.000000  1.000000
                       1.000000  1.000000  1.000000  1.000000  1.000000  1.000000
                       1.000000  1.000000  1.000000  1.000000  1.000000  1.000000
                       1.000000  1.000000  1.000000  1.000000  1.000000  1.000000
                       1.000000  1.000000  1.000000  1.000000  1.000000  1.000000
                       0.000000  0.000000  0.000000  0.000000  0.000000  0.000000
                       0.000000  0.000000  0.000000  0.000000  0.000000  0.000000
                       0.000000  0.000000  0.000000  0.000000  0.000000
                       1.000000  1.000000  1.000000  1.000000  1.000000  1.000000
                       1.000000  1.000000  1.000000  1.000000  1.000000  1.000000
                       1.000000  1.000000  1.000000  1.000000  1.000000  1.000000
                       1.000000  1.000000  1.000000  1.000000  1.000000  1.000000
                       1.000000  1.000000  1.000000  1.000000  1.000000  1.000000
                       1.000000  1.000000  1.000000  1.000000  1.000000  1.000000
                       1.000000  1.000000  1.000000  1.000000  1.000000  1.000000
                       1.000000  1.000000  1.000000  1.000000  1.000000  1.000000
                       0.000000  0.000000  0.000000  0.000000  0.000000  0.000000
                       0.000000  0.000000  0.000000  0.000000  0.000000  0.000000
                       0.000000  0.000000  0.000000  0.000000  0.000000
                       1.000000  1.000000  1.000000  1.000000  1.000000  1.000000
                       1.000000  1.000000  1.000000  1.000000  1.000000  1.000000
                       1.000000  1.000000  1.000000  1.000000  1.000000  1.000000
                       1.000000  1.000000  1.000000  1.000000  1.000000  1.000000
                       1.000000  1.000000  1.000000  1.000000  1.000000  1.000000
                       1.000000  1.000000  1.000000  1.000000  1.000000  1.000000
                       1.000000  1.000000  1.000000  1.000000  1.000000  1.000000
                       1.000000  1.000000  1.000000  1.000000  1.000000  1.000000
                       0.000000  0.000000  0.000000  0.000000  0.000000  0.000000
                       0.000000  0.000000  0.000000  0.000000  0.000000  0.000000
                       0.000000  0.000000  0.000000  0.000000  0.000000
                       1.000000  1.000000  1.000000  1.000000  1.000000  1.000000
                       1.000000  1.000000  1.000000  1.000000  1.000000  1.000000
                       1.000000  1.000000  1.000000  1.000000  1.000000  1.000000
                       1.000000  1.000000  1.000000  1.000000  1.000000  1.000000
                       1.000000  1.000000  1.000000  1.000000  1.000000  1.000000
                       1.000000  1.000000  1.000000  1.000000  1.000000  1.000000
                       1.000000  1.000000  1.000000  1.000000  1.000000  1.000000
                       1.000000  1.000000  1.000000  1.000000  1.000000  1.000000
                       0.000000  0.000000  0.000000  0.000000  0.000000  0.000000
                       0.000000  0.000000  0.000000  0.000000  0.000000  0.000000
                       0.000000  0.000000  0.000000  0.000000  0.000000
           occopt           3
           prtden           0
           prteig           0
          prtkden           1
            prtwf           0
            rprim      0.0000000000E+00  1.0137047334E+01  0.0000000000E+00
                       9.6126033568E+00  0.0000000000E+00  0.0000000000E+00
                       0.0000000000E+00 -5.7455806104E+00 -9.8776109362E+00
           shiftk      5.00000000E-01  5.00000000E-01  5.00000000E-01
          spgroup           1
           spinat      0.0000000000E+00  0.0000000000E+00  1.0000000000E+00
                       0.0000000000E+00  0.0000000000E+00  1.0000000000E+00
                       0.0000000000E+00  0.0000000000E+00  1.0000000000E+00
                       0.0000000000E+00  0.0000000000E+00  1.0000000000E+00
                       0.0000000000E+00  0.0000000000E+00  1.0000000000E+00
                       0.0000000000E+00  0.0000000000E+00  1.0000000000E+00
                       0.0000000000E+00  0.0000000000E+00  1.0000000000E+00
                       0.0000000000E+00  0.0000000000E+00  1.0000000000E+00
                       0.0000000000E+00  0.0000000000E+00  1.0000000000E+00
                       0.0000000000E+00  0.0000000000E+00  1.0000000000E+00
                       0.0000000000E+00  0.0000000000E+00  1.0000000000E+00
                       0.0000000000E+00  0.0000000000E+00  1.0000000000E+00
                       0.0000000000E+00  0.0000000000E+00  1.0000000000E+00
                       0.0000000000E+00  0.0000000000E+00  1.0000000000E+00
           strten      1.3349267871E-02  1.3036036969E-02  1.3363658723E-02
                       3.6749978250E-05  4.2624911204E-10 -5.5006965725E-09
           toldfe      1.00000000E-06 Hartree
           tsmear      1.00000000E-03 Hartree
            typat      1  1  2  2  2  2  3  3  3  3  3  3  3  3
          usekden           1
              wtk        0.25000    0.25000    0.25000    0.25000
           xangst      2.5179514527E+00 -1.5050130030E+00 -2.5873682585E+00
                       0.0000000000E+00  0.0000000000E+00  0.0000000000E+00
                       3.1247122861E+00  1.1791084761E+00 -2.1259318285E+00
                       6.0676083337E-01  2.6265299883E+00 -4.6143642995E-01
                       1.9111906194E+00  1.1215169853E+00 -3.0488046884E+00
                       4.4291420721E+00 -3.2590452692E-01 -4.7133000870E+00
                       1.4732735386E+00  2.2122255456E+00 -3.5113588615E+00
                       3.9912249914E+00 -1.4166130873E+00 -4.2507459140E+00
                       3.5626293669E+00  8.8399915737E-02 -1.6633776555E+00
                       1.0446779141E+00  3.7172385487E+00 -9.2399060299E-01
                       3.6040748478E+00  2.3092071961E+00 -1.8953973167E+00
                       1.0861233950E+00  1.4964312683E+00 -6.9197094178E-01
                       1.4318280577E+00 -8.5817347280E-03 -3.2793392003E+00
                       3.9497795104E+00  8.0419419306E-01 -4.4827655752E+00
            xcart      4.7582386616E+00 -2.8440624022E+00 -4.8894174134E+00
                       0.0000000000E+00  0.0000000000E+00  0.0000000000E+00
                       5.9048504648E+00  2.2281921008E+00 -4.0174289331E+00
                       1.1466118032E+00  4.9634223577E+00 -8.7198848035E-01
                       3.6116268584E+00  2.1193599555E+00 -5.7614058938E+00
                       8.3698655200E+00 -6.1587030135E-01 -8.9068463465E+00
                       2.7840835068E+00  4.1805004254E+00 -6.6355066025E+00
                       7.5423221684E+00 -2.6770107712E+00 -8.0327456379E+00
                       6.7323938164E+00  1.6705163091E-01 -3.1433282244E+00
                       1.9741551548E+00  7.0245628276E+00 -1.7460891890E+00
                       6.8107144248E+00  4.3637691847E+00 -3.5817818416E+00
                       2.0524757632E+00  2.8278452738E+00 -1.3076355719E+00
                       2.7057628984E+00 -1.6217128381E-02 -6.1970529853E+00
                       7.4640015600E+00  1.5197067825E+00 -8.4711992550E+00
             xred     -5.9938125571E-17  5.0000000000E-01  5.0000000000E-01
                       0.0000000000E+00  0.0000000000E+00  0.0000000000E+00
                       4.5488100000E-01  6.2048700000E-01  4.1082900000E-01
                       5.4511900000E-01  1.2048700000E-01  8.9171000000E-02
                       5.4511900000E-01  3.7951300000E-01  5.8917100000E-01
                       4.5488100000E-01  8.7951300000E-01  9.1082900000E-01
                       8.0116400000E-01  2.9255400000E-01  6.7855800000E-01
                       1.9883600000E-01  7.9255400000E-01  8.2144200000E-01
                       1.9883600000E-01  7.0744600000E-01  3.2144200000E-01
                       8.0116400000E-01  2.0744600000E-01  1.7855800000E-01
                       6.4242900000E-01  7.1567600000E-01  3.6627900000E-01
                       3.5757100000E-01  2.1567600000E-01  1.3372100000E-01
                       3.5757100000E-01  2.8432400000E-01  6.3372100000E-01
                       6.4242900000E-01  7.8432400000E-01  8.6627900000E-01
            znucl       28.00000    6.00000    8.00000

================================================================================
  

================================================================================

 Suggested references for the acknowledgment of ABINIT usage.

 The users of ABINIT have little formal obligations with respect to the ABINIT group
 (those specified in the GNU General Public License, http://www.gnu.org/copyleft/gpl.txt).
 However, it is common practice in the scientific literature,
 to acknowledge the efforts of people that have made the research possible.
 In this spirit, please find below suggested citations of work written by ABINIT developers,
 corresponding to implementations inside of ABINIT that you have used in the present run.
 Note also that it will be of great value to readers of publications presenting these results,
 to read papers enabling them to understand the theoretical formalism and details
 of the ABINIT implementation.
 For information on why they are suggested, see also https://docs.abinit.org/theory/acknowledgments.
-
- [1] Libxc: A library of exchange and correlation functionals for density functional theory.
- M.A.L. Marques, M.J.T. Oliveira, T. Burnus, Computer Physics Communications 183, 2227 (2012).
- Comment: to be cited when LibXC is used (negative value of ixc)
- Strong suggestion to cite this paper.
- DOI and bibtex: see https://docs.abinit.org/theory/bibliography/#marques2012
-
- [2] The Abinit project: Impact, environment and recent developments.
- Computer Phys. Comm. 248, 107042 (2020).
- X.Gonze, B. Amadon, G. Antonius, F.Arnardi, L.Baguet, J.-M.Beuken,
- J.Bieder, F.Bottin, J.Bouchet, E.Bousquet, N.Brouwer, F.Bruneval,
- G.Brunin, T.Cavignac, J.-B. Charraud, Wei Chen, M.Cote, S.Cottenier,
- J.Denier, G.Geneste, Ph.Ghosez, M.Giantomassi, Y.Gillet, O.Gingras,
- D.R.Hamann, G.Hautier, Xu He, N.Helbig, N.Holzwarth, Y.Jia, F.Jollet,
- W.Lafargue-Dit-Hauret, K.Lejaeghere, M.A.L.Marques, A.Martin, C.Martins,
- H.P.C. Miranda, F.Naccarato, K. Persson, G.Petretto, V.Planes, Y.Pouillon,
- S.Prokhorenko, F.Ricci, G.-M.Rignanese, A.H.Romero, M.M.Schmitt, M.Torrent,
- M.J.van Setten, B.Van Troeye, M.J.Verstraete, G.Zerah and J.W.Zwanzig
- Comment: the fifth generic paper describing the ABINIT project.
- Note that a version of this paper, that is not formatted for Computer Phys. Comm. 
- is available at https://www.abinit.org/sites/default/files/ABINIT20.pdf .
- The licence allows the authors to put it on the Web.
- DOI and bibtex: see https://docs.abinit.org/theory/bibliography/#gonze2020
-
- [3] Optimized norm-conserving Vanderbilt pseudopotentials.
- D.R. Hamann, Phys. Rev. B 88, 085117 (2013).
- Comment: Some pseudopotential generated using the ONCVPSP code were used.
- DOI and bibtex: see https://docs.abinit.org/theory/bibliography/#hamann2013
-
- [4] ABINIT: Overview, and focus on selected capabilities
- J. Chem. Phys. 152, 124102 (2020).
- A. Romero, D.C. Allan, B. Amadon, G. Antonius, T. Applencourt, L.Baguet,
- J.Bieder, F.Bottin, J.Bouchet, E.Bousquet, F.Bruneval,
- G.Brunin, D.Caliste, M.Cote,
- J.Denier, C. Dreyer, Ph.Ghosez, M.Giantomassi, Y.Gillet, O.Gingras,
- D.R.Hamann, G.Hautier, F.Jollet, G. Jomard,
- A.Martin, 
- H.P.C. Miranda, F.Naccarato, G.Petretto, N.A. Pike, V.Planes,
- S.Prokhorenko, T. Rangel, F.Ricci, G.-M.Rignanese, M.Royo, M.Stengel, M.Torrent,
- M.J.van Setten, B.Van Troeye, M.J.Verstraete, J.Wiktor, J.W.Zwanziger, and X.Gonze.
- Comment: a global overview of ABINIT, with focus on selected capabilities .
- Note that a version of this paper, that is not formatted for J. Chem. Phys 
- is available at https://www.abinit.org/sites/default/files/ABINIT20_JPC.pdf .
- The licence allows the authors to put it on the Web.
- DOI and bibtex: see https://docs.abinit.org/theory/bibliography/#romero2020
-
- [5] Recent developments in the ABINIT software package.
- Computer Phys. Comm. 205, 106 (2016).
- X.Gonze, F.Jollet, F.Abreu Araujo, D.Adams, B.Amadon, T.Applencourt,
- C.Audouze, J.-M.Beuken, J.Bieder, A.Bokhanchuk, E.Bousquet, F.Bruneval
- D.Caliste, M.Cote, F.Dahm, F.Da Pieve, M.Delaveau, M.Di Gennaro,
- B.Dorado, C.Espejo, G.Geneste, L.Genovese, A.Gerossier, M.Giantomassi,
- Y.Gillet, D.R.Hamann, L.He, G.Jomard, J.Laflamme Janssen, S.Le Roux,
- A.Levitt, A.Lherbier, F.Liu, I.Lukacevic, A.Martin, C.Martins,
- M.J.T.Oliveira, S.Ponce, Y.Pouillon, T.Rangel, G.-M.Rignanese,
- A.H.Romero, B.Rousseau, O.Rubel, A.A.Shukri, M.Stankovski, M.Torrent,
- M.J.Van Setten, B.Van Troeye, M.J.Verstraete, D.Waroquier, J.Wiktor,
- B.Xu, A.Zhou, J.W.Zwanziger.
- Comment: the fourth generic paper describing the ABINIT project.
- Note that a version of this paper, that is not formatted for Computer Phys. Comm. 
- is available at https://www.abinit.org/sites/default/files/ABINIT16.pdf .
- The licence allows the authors to put it on the Web.
- DOI and bibtex: see https://docs.abinit.org/theory/bibliography/#gonze2016
 Proc.   0 individual time (sec): cpu=       5507.6  wall=       5539.2

 Calculation completed.
.Delivered   0 WARNINGs and   0 COMMENTs to log file.

--- !FinalSummary
program: abinit
version: 9.6.2
start_datetime: Thu Dec 22 12:15:10 2022
end_datetime: Thu Dec 22 13:47:30 2022
overall_cpu_time:       44139.2
overall_wall_time:       44315.1
exit_requested_by_user: no 
timelimit: 0
pseudos: 
    Ni  : 6ed2f4ef33f542dbb8bccaf193f9ee1b
    C   : 0671db42fbc6781d44a36978545fd691
    O   : ec29db0878725605673bf3262559bcee
usepaw: 0
mpi_procs: 14
omp_threads: 1
num_warnings: 0
num_comments: 0
...
---------------------------------------
Begin Slurm Epilog: Dec-22-2022 13:47:30
Job ID:        223883
Array Job ID:  _4294967294
User ID:       bzhang376
Account:       gts-phanish6-coda20
Job name:      Abi098
Resources:     cpu=14,mem=98G,node=1
Rsrc Used:     cput=21:33:36,vmem=8280K,walltime=01:32:24,mem=7144K,energy_used=0
Partition:     cpu-small
QOS:           inferno
Nodes:         atl1-1-02-004-6-2
---------------------------------------
