
     Program PWSCF v.7.0 starts on 23Feb2023 at 23:56:45 

     This program is part of the open-source Quantum ESPRESSO suite
     for quantum simulation of materials; please cite
         "P. Giannozzi et al., J. Phys.:Condens. Matter 21 395502 (2009);
         "P. Giannozzi et al., J. Phys.:Condens. Matter 29 465901 (2017);
         "P. Giannozzi et al., J. Chem. Phys. 152 154105 (2020);
          URL http://www.quantum-espresso.org", 
     in publications or presentations arising from this work. More details at
     http://www.quantum-espresso.org/quote

     Parallel version (MPI), running on   480 processors

     MPI processes distributed on    40 nodes
     R & G space division:  proc/nbgrp/npool/nimage =     480
     164387 MiB available memory on the printing compute node when the environment starts

     Reading input from pw.inp
Warning: card &CELL ignored
Warning: card / ignored

     Current dimensions of program PWSCF are:
     Max number of different atomic species (ntypx) = 10
     Max number of k-points (npk) =  40000
     Max angular momentum in pseudopotentials (lmaxx) =  4
     Message from routine cell_base_init:
     DEPRECATED: use true lattice parameter, not A to a.u. conversion factor

     IMPORTANT: XC functional enforced from input :
     Exchange-correlation= HSE
                           (   1   4  12   4   0   0   0)
     EXX-fraction              =        0.25
     Any further DFT definition will be discarded
     Please, verify this is what you really want

     Message from routine setup :
     BEWARE: nonlinear core correction is not consistent with hybrid XC
     Found identity + (  0.0000 -0.5000  0.0000) symmetry
     This is a supercell, fractional translations are disabled
     EXX: q-point mesh:     2    2    1
     EXX: setup a grid of 4 q-points centered on each k-point
     (k+q)-points:
   0.0142664   0.0222913   0.0000000         1    1
   0.0142664  -0.0222913   0.0000000         2    1
  -0.0142664   0.0222913   0.0000000         2   -1
  -0.0142664  -0.0222913  -0.0000000         1   -1

     Subspace diagonalization in iterative solution of the eigenvalue problem:
     one sub-group per band group will be used
     scalapack distributed-memory algorithm (size of sub-group: 21* 21 procs)


     Parallelization info
     --------------------
     sticks:   dense  smooth     PW     G-vecs:    dense   smooth      PW
     Min          10      10      2                 1764     1764     206
     Max          11      11      3                 1803     1803     263
     Sum        4993    4993   1303               854265   854265  112889

     Using Pencil Decomposition



     bravais-lattice index     =            0
     lattice parameter (alat)  =       1.0000  a.u.
     unit-cell volume          =    8840.2240 (a.u.)^3
     number of atoms/cell      =           96
     number of atomic types    =            2
     number of electrons       =       768.00
     number of Kohn-Sham states=          461
     kinetic-energy cutoff     =      80.0000  Ry
     charge density cutoff     =     320.0000  Ry
     cutoff for Fock operator  =     320.0000  Ry
     scf convergence threshold =      1.0E-02
     mixing beta               =       0.3000
     number of iterations used =            8  TF        mixing
     Exchange-correlation= HSE
                           (   1   4  12   4   0   0   0)
     EXX-fraction              =        0.25

     celldm(1)=   1.000000  celldm(2)=   0.000000  celldm(3)=   0.000000
     celldm(4)=   0.000000  celldm(5)=   0.000000  celldm(6)=   0.000000

     crystal axes: (cart. coord. in units of alat)
               a(1) = (  17.523698   0.000000   0.000000 )  
               a(2) = (   0.000000  11.215115   0.000000 )  
               a(3) = (   0.000000   0.000000  44.981483 )  

     reciprocal axes: (cart. coord. in units 2 pi/alat)
               b(1) = (  0.057066  0.000000  0.000000 )  
               b(2) = (  0.000000  0.089165  0.000000 )  
               b(3) = (  0.000000  0.000000  0.022231 )  


     PseudoPot. # 1 for O  read from file:
     .././08_O_6_1.2_1.4_pbe_n_v1.0.upf
     MD5 check sum: a8b7f44dbbd6106bf79c6036dc5c6a43
     Pseudo is Norm-conserving + core correction, Zval =  6.0
     Generated using ONCVPSP code by D. R. Hamann
     Using radial grid of  934 points,  5 beta functions with: 
                l(1) =   0
                l(2) =   0
                l(3) =   1
                l(4) =   1
                l(5) =   2

     PseudoPot. # 2 for Ti read from file:
     .././22_Ti_12_2.0_2.8_pbe_n_v1.0.upf
     MD5 check sum: 5292e08a1afa329970694609a7514cd4
     Pseudo is Norm-conserving + core correction, Zval = 12.0
     Generated using ONCVPSP code by D. R. Hamann
     Using radial grid of 1584 points,  6 beta functions with: 
                l(1) =   0
                l(2) =   0
                l(3) =   1
                l(4) =   1
                l(5) =   2
                l(6) =   2

     atomic species   valence    mass     pseudopotential
        O              6.00    15.99900     O ( 1.00)
        Ti            12.00    47.86700     Ti( 1.00)

     No symmetry found



   Cartesian axes

     site n.     atom                  positions (alat units)
         1           O   tau(   1) = (   2.6719896   0.0000000   9.8295544  )
         2           O   tau(   2) = (   6.0898595   0.0000000  13.2473047  )
         3           O   tau(   3) = (   7.0529141   2.8037788   8.8663793  )
         4           O   tau(   4) = (   1.7089351   2.8037788   5.4486306  )
         5           O   tau(   5) = (   2.6719896   0.0000000  18.5914035  )
         6           O   tau(   6) = (   6.0898595   0.0000000  22.0091537  )
         7           O   tau(   7) = (   7.0529141   2.8037788  17.6282284  )
         8           O   tau(   8) = (   1.7089351   2.8037788  14.2104797  )
         9           O   tau(   9) = (   2.6719896   0.0000000  27.3532526  )
        10           O   tau(  10) = (   6.0898595   0.0000000  30.7710028  )
        11           O   tau(  11) = (   7.0529141   2.8037788  26.3900774  )
        12           O   tau(  12) = (   1.7089351   2.8037788  22.9723288  )
        13           O   tau(  13) = (   2.6719896   0.0000000  36.1151017  )
        14           O   tau(  14) = (   6.0898595   0.0000000  39.5328519  )
        15           O   tau(  15) = (   7.0529141   2.8037788  35.1519265  )
        16           O   tau(  16) = (   1.7089351   2.8037788  31.7341779  )
        17           O   tau(  17) = (   2.6719896   5.6075576   9.8295544  )
        18           O   tau(  18) = (   6.0898595   5.6075576  13.2473047  )
        19           O   tau(  19) = (   7.0529141   8.4113364   8.8663793  )
        20           O   tau(  20) = (   1.7089351   8.4113364   5.4486306  )
        21           O   tau(  21) = (   2.6719896   5.6075576  18.5914035  )
        22           O   tau(  22) = (   6.0898595   5.6075576  22.0091537  )
        23           O   tau(  23) = (   7.0529141   8.4113364  17.6282284  )
        24           O   tau(  24) = (   1.7089351   8.4113364  14.2104797  )
        25           O   tau(  25) = (   2.6719896   5.6075576  27.3532526  )
        26           O   tau(  26) = (   6.0898595   5.6075576  30.7710028  )
        27           O   tau(  27) = (   7.0529141   8.4113364  26.3900774  )
        28           O   tau(  28) = (   1.7089351   8.4113364  22.9723288  )
        29           O   tau(  29) = (   2.6719896   5.6075576  36.1151017  )
        30           O   tau(  30) = (   6.0898595   5.6075576  39.5328519  )
        31           O   tau(  31) = (   7.0529141   8.4113364  35.1519265  )
        32           O   tau(  32) = (   1.7089351   8.4113364  31.7341779  )
        33           O   tau(  33) = (  11.4338387   0.0000000   9.8295544  )
        34           O   tau(  34) = (  14.8517086   0.0000000  13.2473047  )
        35           O   tau(  35) = (  15.8147632   2.8037788   8.8663793  )
        36           O   tau(  36) = (  10.4707842   2.8037788   5.4486306  )
        37           O   tau(  37) = (  11.4338387   0.0000000  18.5914035  )
        38           O   tau(  38) = (  14.8517086   0.0000000  22.0091537  )
        39           O   tau(  39) = (  15.8147632   2.8037788  17.6282284  )
        40           O   tau(  40) = (  10.4707842   2.8037788  14.2104797  )
        41           O   tau(  41) = (  11.4338387   0.0000000  27.3532526  )
        42           O   tau(  42) = (  14.8517086   0.0000000  30.7710028  )
        43           O   tau(  43) = (  15.8147632   2.8037788  26.3900774  )
        44           O   tau(  44) = (  10.4707842   2.8037788  22.9723288  )
        45           O   tau(  45) = (  11.4338387   0.0000000  36.1151017  )
        46           O   tau(  46) = (  14.8517086   0.0000000  39.5328519  )
        47           O   tau(  47) = (  15.8147632   2.8037788  35.1519265  )
        48           O   tau(  48) = (  10.4707842   2.8037788  31.7341779  )
        49           O   tau(  49) = (  11.4338387   5.6075576   9.8295544  )
        50           O   tau(  50) = (  14.8517086   5.6075576  13.2473047  )
        51           O   tau(  51) = (  15.8147632   8.4113364   8.8663793  )
        52           O   tau(  52) = (  10.4707842   8.4113364   5.4486306  )
        53           O   tau(  53) = (  11.4338387   5.6075576  18.5914035  )
        54           O   tau(  54) = (  14.8517086   5.6075576  22.0091537  )
        55           O   tau(  55) = (  15.8147632   8.4113364  17.6282284  )
        56           O   tau(  56) = (  10.4707842   8.4113364  14.2104797  )
        57           O   tau(  57) = (  11.4338387   5.6075576  27.3532526  )
        58           O   tau(  58) = (  14.8517086   5.6075576  30.7710028  )
        59           O   tau(  59) = (  15.8147632   8.4113364  26.3900774  )
        60           O   tau(  60) = (  10.4707842   8.4113364  22.9723288  )
        61           O   tau(  61) = (  11.4338387   5.6075576  36.1151017  )
        62           O   tau(  62) = (  14.8517086   5.6075576  39.5328519  )
        63           O   tau(  63) = (  15.8147632   8.4113364  35.1519265  )
        64           O   tau(  64) = (  10.4707842   8.4113364  31.7341779  )
        65           Ti  tau(  65) = (   0.0000000   0.0000000   7.1575050  )
        66           Ti  tau(  66) = (   4.3809245   2.8037788  11.5384296  )
        67           Ti  tau(  67) = (   0.0000000   0.0000000  15.9193541  )
        68           Ti  tau(  68) = (   4.3809245   2.8037788  20.3002787  )
        69           Ti  tau(  69) = (   0.0000000   0.0000000  24.6812032  )
        70           Ti  tau(  70) = (   4.3809245   2.8037788  29.0621278  )
        71           Ti  tau(  71) = (   0.0000000   0.0000000  33.4430523  )
        72           Ti  tau(  72) = (   4.3809245   2.8037788  37.8239769  )
        73           Ti  tau(  73) = (   0.0000000   5.6075576   7.1575050  )
        74           Ti  tau(  74) = (   4.3809245   8.4113364  11.5384296  )
        75           Ti  tau(  75) = (   0.0000000   5.6075576  15.9193541  )
        76           Ti  tau(  76) = (   4.3809245   8.4113364  20.3002787  )
        77           Ti  tau(  77) = (   0.0000000   5.6075576  24.6812032  )
        78           Ti  tau(  78) = (   4.3809245   8.4113364  29.0621278  )
        79           Ti  tau(  79) = (   0.0000000   5.6075576  33.4430523  )
        80           Ti  tau(  80) = (   4.3809245   8.4113364  37.8239769  )
        81           Ti  tau(  81) = (   8.7618491   0.0000000   7.1575050  )
        82           Ti  tau(  82) = (  13.1427735   2.8037788  11.5384296  )
        83           Ti  tau(  83) = (   8.7618491   0.0000000  15.9193541  )
        84           Ti  tau(  84) = (  13.1427735   2.8037788  20.3002787  )
        85           Ti  tau(  85) = (   8.7618491   0.0000000  24.6812032  )
        86           Ti  tau(  86) = (  13.1427735   2.8037788  29.0621278  )
        87           Ti  tau(  87) = (   8.7618491   0.0000000  33.4430523  )
        88           Ti  tau(  88) = (  13.1427735   2.8037788  37.8239769  )
        89           Ti  tau(  89) = (   8.7618491   5.6075576   7.1575050  )
        90           Ti  tau(  90) = (  13.1427735   8.4113364  11.5384296  )
        91           Ti  tau(  91) = (   8.7618491   5.6075576  15.9193541  )
        92           Ti  tau(  92) = (  13.1427735   8.4113364  20.3002787  )
        93           Ti  tau(  93) = (   8.7618491   5.6075576  24.6812032  )
        94           Ti  tau(  94) = (  13.1427735   8.4113364  29.0621278  )
        95           Ti  tau(  95) = (   8.7618491   5.6075576  33.4430523  )
        96           Ti  tau(  96) = (  13.1427735   8.4113364  37.8239769  )

     number of k points=     2  Gaussian smearing, width (Ry)=  0.0037
                       cart. coord. in units 2pi/alat
        k(    1) = (   0.0142664   0.0222913   0.0000000), wk =   1.0000000
        k(    2) = (   0.0142664  -0.0222913   0.0000000), wk =   1.0000000

     Dense  grid:   854265 G-vectors     FFT dimensions: ( 100,  64, 270)

     Estimated max dynamical RAM per process >     185.41 MB

     Estimated total dynamical RAM >      86.91 GB

     Initial potential from superposition of free atoms

     starting charge     767.9490, renormalised to     768.0000
     Starting wfcs are  576 randomized atomic wfcs

     total cpu time spent up to now is        4.8 secs

     per-process dynamical memory:    94.2 Mb

     Self-consistent Calculation

     iteration #  1     ecut=    80.00 Ry     beta= 0.30
     Davidson diagonalization with overlap
     ethr =  1.00E-02,  avg # of iterations =  2.0

     total cpu time spent up to now is        8.5 secs

     total energy              =   -5880.52686175 Ry
     estimated scf accuracy    <      47.38261556 Ry

     iteration #  2     ecut=    80.00 Ry     beta= 0.30
     Davidson diagonalization with overlap
     ethr =  6.17E-03,  avg # of iterations =  1.0

     total cpu time spent up to now is       11.6 secs

     total energy              =   -5876.56077272 Ry
     estimated scf accuracy    <      14.40948338 Ry

     iteration #  3     ecut=    80.00 Ry     beta= 0.30
     Davidson diagonalization with overlap
     ethr =  1.88E-03,  avg # of iterations =  5.5

     total cpu time spent up to now is       17.2 secs

     total energy              =   -5880.60467869 Ry
     estimated scf accuracy    <       8.26928809 Ry

     iteration #  4     ecut=    80.00 Ry     beta= 0.30
     Davidson diagonalization with overlap
     ethr =  1.08E-03,  avg # of iterations =  2.0

     total cpu time spent up to now is       20.5 secs

     total energy              =   -5881.22248895 Ry
     estimated scf accuracy    <       1.19633443 Ry

     iteration #  5     ecut=    80.00 Ry     beta= 0.30
     Davidson diagonalization with overlap
     ethr =  1.56E-04,  avg # of iterations =  5.0

     total cpu time spent up to now is       26.1 secs

     total energy              =   -5881.50168310 Ry
     estimated scf accuracy    <       1.28613956 Ry

     iteration #  6     ecut=    80.00 Ry     beta= 0.30
     Davidson diagonalization with overlap
     ethr =  1.56E-04,  avg # of iterations =  1.5

     total cpu time spent up to now is       29.1 secs

     total energy              =   -5881.55997972 Ry
     estimated scf accuracy    <       0.30506389 Ry

     iteration #  7     ecut=    80.00 Ry     beta= 0.30
     Davidson diagonalization with overlap
     ethr =  3.97E-05,  avg # of iterations =  4.0

     total cpu time spent up to now is       33.1 secs

     total energy              =   -5881.58999945 Ry
     estimated scf accuracy    <       0.19144315 Ry

     iteration #  8     ecut=    80.00 Ry     beta= 0.30
     Davidson diagonalization with overlap
     ethr =  2.49E-05,  avg # of iterations =  2.0

     total cpu time spent up to now is       36.3 secs

     total energy              =   -5881.59379079 Ry
     estimated scf accuracy    <       0.18461337 Ry

     iteration #  9     ecut=    80.00 Ry     beta= 0.30
     Davidson diagonalization with overlap
     ethr =  2.40E-05,  avg # of iterations =  1.0

     total cpu time spent up to now is       39.3 secs

     total energy              =   -5881.58378898 Ry
     estimated scf accuracy    <       0.16176547 Ry

     iteration # 10     ecut=    80.00 Ry     beta= 0.30
     Davidson diagonalization with overlap
     ethr =  2.11E-05,  avg # of iterations =  2.0

     total cpu time spent up to now is       42.7 secs

     total energy              =   -5881.59616097 Ry
     estimated scf accuracy    <       0.12945497 Ry

     iteration # 11     ecut=    80.00 Ry     beta= 0.30
     Davidson diagonalization with overlap
     c_bands:  1 eigenvalues not converged
     ethr =  1.69E-05,  avg # of iterations = 19.5

     negative rho (up, down):  2.043E-05 0.000E+00

     total cpu time spent up to now is       49.7 secs

     total energy              =   -5881.58749563 Ry
     estimated scf accuracy    <       0.12750651 Ry

     iteration # 12     ecut=    80.00 Ry     beta= 0.30
     Davidson diagonalization with overlap
     c_bands:  1 eigenvalues not converged
     ethr =  1.66E-05,  avg # of iterations = 10.5

     negative rho (up, down):  4.523E-02 0.000E+00

     total cpu time spent up to now is       54.3 secs

     total energy              =   -5881.59226474 Ry
     estimated scf accuracy    <       0.08468616 Ry

     iteration # 13     ecut=    80.00 Ry     beta= 0.30
     Davidson diagonalization with overlap
     ethr =  1.10E-05,  avg # of iterations =  3.5

     negative rho (up, down):  6.268E-02 0.000E+00

     total cpu time spent up to now is       57.9 secs

     total energy              =   -5881.54104865 Ry
     estimated scf accuracy    <       0.10271821 Ry

     iteration # 14     ecut=    80.00 Ry     beta= 0.30
     Davidson diagonalization with overlap
     c_bands:  2 eigenvalues not converged
     c_bands:  5 eigenvalues not converged
     ethr =  1.10E-05,  avg # of iterations = 20.0

     negative rho (up, down):  2.154E-02 0.000E+00

     total cpu time spent up to now is       70.1 secs

     total energy              =   -5881.54360731 Ry
     estimated scf accuracy    <       0.36775131 Ry

     iteration # 15     ecut=    80.00 Ry     beta= 0.30
     Davidson diagonalization with overlap
     ethr =  1.10E-05,  avg # of iterations = 18.0

     negative rho (up, down):  1.018E-02 0.000E+00

     total cpu time spent up to now is       79.8 secs

     total energy              =   -5881.57986008 Ry
     estimated scf accuracy    <       0.02896639 Ry

     iteration # 16     ecut=    80.00 Ry     beta= 0.30
     Davidson diagonalization with overlap
     ethr =  3.77E-06,  avg # of iterations =  2.0

     negative rho (up, down):  8.220E-03 0.000E+00

     total cpu time spent up to now is       83.1 secs

     total energy              =   -5881.57592562 Ry
     estimated scf accuracy    <       0.02135977 Ry

     iteration # 17     ecut=    80.00 Ry     beta= 0.30
     Davidson diagonalization with overlap
     ethr =  2.78E-06,  avg # of iterations =  9.0

     negative rho (up, down):  2.430E-03 0.000E+00

     total cpu time spent up to now is       88.6 secs

     total energy              =   -5881.57909519 Ry
     estimated scf accuracy    <       0.01039027 Ry

     iteration # 18     ecut=    80.00 Ry     beta= 0.30
     Davidson diagonalization with overlap
     ethr =  1.35E-06,  avg # of iterations =  4.5

     total cpu time spent up to now is       92.4 secs

     End of self-consistent calculation

          k = 0.0143 0.0223 0.0000 (106809 PWs)   bands (ev):

   -51.5621 -51.5600 -51.5573 -51.5556 -51.5327 -51.5318 -51.5307 -51.5299
   -51.5036 -51.5035 -51.5034 -51.5033 -51.4762 -51.4761 -51.4760 -51.4760
   -51.4680 -51.4679 -51.4677 -51.4677 -51.4407 -51.4405 -51.4404 -51.4404
   -51.1637 -51.1629 -51.1623 -51.1623 -51.1367 -51.1359 -51.1353 -51.1352
   -28.0583 -28.0569 -28.0549 -28.0540 -27.9972 -27.9969 -27.9967 -27.9966
   -27.9757 -27.9756 -27.9755 -27.9754 -27.8652 -27.8647 -27.8599 -27.8595
   -27.8116 -27.8099 -27.8093 -27.8060 -27.7776 -27.7767 -27.7757 -27.7754
   -27.7754 -27.7740 -27.7739 -27.7722 -27.7547 -27.7533 -27.7531 -27.7529
   -27.7483 -27.7474 -27.7473 -27.7461 -27.7430 -27.7377 -27.7363 -27.7332
   -27.7089 -27.7085 -27.7081 -27.7076 -27.7041 -27.7037 -27.7012 -27.7008
   -27.7006 -27.7004 -27.7002 -27.6999 -27.6883 -27.6880 -27.6878 -27.6870
   -27.6681 -27.6680 -27.6678 -27.6678 -27.6639 -27.6638 -27.6634 -27.6633
   -27.6610 -27.6609 -27.6608 -27.6606 -27.6507 -27.6507 -27.6505 -27.6505
   -27.5360 -27.5351 -27.5350 -27.5345 -27.5254 -27.5246 -27.5243 -27.5241
   -27.5176 -27.5167 -27.5164 -27.5162 -27.3546 -27.3540 -27.3534 -27.3533
   -27.2872 -27.2865 -27.2860 -27.2856 -27.2275 -27.2267 -27.2262 -27.2262
   -12.4691 -12.2995 -12.1458 -12.1112 -12.0586 -11.9813 -11.8876 -11.8753
   -11.7724 -11.7004 -11.6899 -11.6596 -11.6523 -11.6400 -11.5993 -11.5904
   -11.5279 -11.5248 -11.5173 -11.5156 -11.4684 -11.4552 -11.4542 -11.4441
   -11.4263 -11.3932 -11.3491 -11.3479 -11.3295 -11.3293 -11.3288 -11.3039
   -11.2313 -11.2245 -11.2236 -11.1917 -11.1675 -11.1524 -11.1489 -11.1463
   -11.1446 -11.1246 -11.1006 -11.0945 -11.0867 -11.0781 -11.0729 -11.0714
   -11.0662 -11.0610 -11.0486 -11.0414 -11.0409 -11.0390 -11.0045 -10.9828
    -9.9923  -9.9902  -9.9790  -9.9770  -9.9457  -9.9435  -9.9384  -9.9363
     0.0195   0.1437   0.1446   0.1695   0.3664   0.3766   0.3807   0.4396
     0.5698   0.6036   0.6363   0.6416   0.6452   0.6561   0.7265   0.7279
     0.7292   0.7843   0.8340   0.8385   0.8766   0.9204   0.9265   0.9476
     0.9707   0.9957   1.0521   1.0564   1.1025   1.1088   1.1124   1.1148
     1.1227   1.1292   1.1414   1.1532   1.1582   1.1610   1.1925   1.1952
     1.2178   1.2563   1.2590   1.2709   1.2833   1.2988   1.3267   1.3376
     1.3594   1.3751   1.3961   1.3990   1.4267   1.4468   1.4655   1.5216
     1.5226   1.5879   1.5950   1.6187   1.6194   1.6456   1.7538   1.8268
     1.8519   1.9174   1.9324   1.9493   2.0032   2.0515   2.1321   2.1566
     2.1833   2.1968   2.2232   2.2349   2.2356   2.2856   2.3202   2.3289
     2.3537   2.3632   2.4381   2.4450   2.5464   2.5761   2.5797   2.6016
     2.6607   2.6621   2.7156   2.7255   2.7354   2.7782   2.7785   2.8084
     2.8282   2.8742   2.8916   2.9008   2.9077   2.9174   2.9332   2.9986
     3.0000   3.0312   3.0370   3.0635   3.0642   3.0662   3.0741   3.1064
     3.1414   3.1439   3.1621   3.1997   3.2068   3.2617   3.3115   3.3141
     3.3326   3.3632   3.3958   3.4122   3.4260   3.4816   3.4923   3.5102
     3.5223   3.6062   3.6190   3.6227   3.6304   3.6397   3.6494   3.7020
     3.7249   3.7422   3.7569   3.7613   3.7642   3.7834   3.8070   3.8340
     3.8844   3.9083   3.9416   3.9628   3.9664   3.9686   4.0314   4.0522
     4.0794   4.1062   4.1082   4.1478   4.2277   4.2399   4.2627   4.2716
     4.2880   4.3014   4.3184   4.3383   4.3664   4.3962   4.4075   4.4250
     4.4745   4.4792   4.5132   4.5246   4.5491   4.5660   4.6172   4.6274
     4.6323   4.6390   4.6473   4.7621   4.7681   4.8446   4.8958   4.9053
     4.9610   4.9634   4.9721   4.9736   4.9842   5.0901   5.1247   5.1562
     7.4170   7.4574   7.5041   7.5399   7.5880   7.5965   7.6207   7.6227
     7.6515   7.6645   7.6990   7.7543   7.7903   7.7963   7.8184   7.8373
     7.8458   7.8694   7.9093   7.9285   7.9445   7.9714   7.9810   7.9916
     8.0034   8.0478   8.0506   8.0910   8.1242   8.1534   8.1562   8.1567
     8.1656   8.1847   8.2006   8.2534   8.2669   8.2679   8.2720   8.2866
     8.3215   8.3671   8.3809   8.4095   8.4163   8.4208   8.4223   8.4536
     8.4614   8.4788   8.4833   8.4871   8.5262   8.5513   8.5778   8.5854
     8.5888   8.6008   8.6016   8.6144   8.6242   8.6347   8.6382   8.6415
     8.6509   8.6582   8.7097   8.8161   8.8179   8.8302   8.8361   8.8574
     8.8656   8.9560   8.9591   8.9967   9.0022

          k = 0.0143-0.0223 0.0000 (106809 PWs)   bands (ev):

   -51.5621 -51.5600 -51.5573 -51.5556 -51.5327 -51.5318 -51.5307 -51.5299
   -51.5036 -51.5035 -51.5034 -51.5033 -51.4762 -51.4761 -51.4760 -51.4760
   -51.4680 -51.4679 -51.4677 -51.4677 -51.4407 -51.4405 -51.4404 -51.4404
   -51.1637 -51.1629 -51.1623 -51.1623 -51.1367 -51.1359 -51.1353 -51.1352
   -28.0583 -28.0569 -28.0549 -28.0540 -27.9972 -27.9969 -27.9967 -27.9966
   -27.9757 -27.9756 -27.9755 -27.9754 -27.8652 -27.8647 -27.8599 -27.8595
   -27.8116 -27.8099 -27.8093 -27.8060 -27.7776 -27.7767 -27.7757 -27.7754
   -27.7754 -27.7740 -27.7739 -27.7722 -27.7547 -27.7533 -27.7531 -27.7529
   -27.7483 -27.7474 -27.7472 -27.7461 -27.7430 -27.7377 -27.7363 -27.7332
   -27.7089 -27.7085 -27.7081 -27.7076 -27.7041 -27.7037 -27.7012 -27.7008
   -27.7006 -27.7004 -27.7002 -27.6999 -27.6883 -27.6880 -27.6878 -27.6870
   -27.6681 -27.6680 -27.6678 -27.6678 -27.6640 -27.6640 -27.6633 -27.6632
   -27.6611 -27.6611 -27.6607 -27.6605 -27.6507 -27.6507 -27.6505 -27.6505
   -27.5360 -27.5351 -27.5350 -27.5345 -27.5254 -27.5246 -27.5243 -27.5241
   -27.5176 -27.5167 -27.5164 -27.5162 -27.3546 -27.3540 -27.3534 -27.3533
   -27.2872 -27.2865 -27.2860 -27.2856 -27.2275 -27.2267 -27.2262 -27.2262
   -12.4691 -12.2995 -12.1458 -12.1112 -12.0586 -11.9813 -11.8876 -11.8753
   -11.7724 -11.7004 -11.6899 -11.6596 -11.6523 -11.6400 -11.5993 -11.5904
   -11.5279 -11.5248 -11.5173 -11.5156 -11.4684 -11.4552 -11.4542 -11.4441
   -11.4263 -11.3932 -11.3491 -11.3479 -11.3295 -11.3293 -11.3288 -11.3039
   -11.2313 -11.2245 -11.2236 -11.1917 -11.1675 -11.1524 -11.1489 -11.1463
   -11.1446 -11.1246 -11.1006 -11.0945 -11.0867 -11.0781 -11.0729 -11.0714
   -11.0662 -11.0610 -11.0486 -11.0414 -11.0409 -11.0390 -11.0045 -10.9828
    -9.9923  -9.9902  -9.9790  -9.9770  -9.9457  -9.9435  -9.9384  -9.9363
     0.0195   0.1437   0.1446   0.1695   0.3664   0.3766   0.3807   0.4396
     0.5698   0.6036   0.6363   0.6416   0.6452   0.6561   0.7264   0.7280
     0.7291   0.7843   0.8340   0.8385   0.8766   0.9204   0.9265   0.9476
     0.9707   0.9957   1.0521   1.0564   1.1025   1.1088   1.1123   1.1148
     1.1227   1.1292   1.1414   1.1532   1.1582   1.1610   1.1925   1.1953
     1.2178   1.2563   1.2590   1.2709   1.2833   1.2988   1.3267   1.3376
     1.3594   1.3751   1.3961   1.3990   1.4267   1.4468   1.4655   1.5215
     1.5226   1.5879   1.5950   1.6187   1.6194   1.6456   1.7538   1.8269
     1.8520   1.9174   1.9324   1.9493   2.0032   2.0515   2.1321   2.1565
     2.1833   2.1968   2.2232   2.2350   2.2356   2.2856   2.3202   2.3289
     2.3537   2.3633   2.4381   2.4450   2.5464   2.5761   2.5797   2.6017
     2.6607   2.6621   2.7156   2.7255   2.7354   2.7782   2.7785   2.8084
     2.8281   2.8742   2.8916   2.9008   2.9078   2.9174   2.9331   2.9986
     3.0000   3.0312   3.0370   3.0635   3.0641   3.0662   3.0741   3.1064
     3.1414   3.1439   3.1621   3.1997   3.2068   3.2617   3.3115   3.3141
     3.3326   3.3632   3.3958   3.4122   3.4260   3.4816   3.4923   3.5102
     3.5223   3.6062   3.6190   3.6227   3.6304   3.6397   3.6494   3.7020
     3.7249   3.7422   3.7570   3.7613   3.7642   3.7835   3.8070   3.8340
     3.8844   3.9083   3.9416   3.9628   3.9664   3.9686   4.0314   4.0523
     4.0794   4.1062   4.1082   4.1478   4.2277   4.2398   4.2627   4.2716
     4.2880   4.3014   4.3184   4.3383   4.3664   4.3962   4.4075   4.4250
     4.4745   4.4792   4.5132   4.5245   4.5491   4.5660   4.6172   4.6274
     4.6324   4.6390   4.6472   4.7621   4.7681   4.8446   4.8959   4.9053
     4.9610   4.9634   4.9721   4.9735   4.9842   5.0901   5.1247   5.1562
     7.4170   7.4574   7.5041   7.5399   7.5880   7.5965   7.6207   7.6227
     7.6515   7.6645   7.6989   7.7543   7.7903   7.7963   7.8185   7.8373
     7.8458   7.8693   7.9093   7.9284   7.9445   7.9714   7.9810   7.9915
     8.0034   8.0478   8.0505   8.0909   8.1240   8.1534   8.1562   8.1566
     8.1657   8.1847   8.2006   8.2534   8.2668   8.2679   8.2720   8.2867
     8.3215   8.3671   8.3810   8.4096   8.4163   8.4208   8.4222   8.4536
     8.4613   8.4788   8.4833   8.4871   8.5262   8.5514   8.5778   8.5854
     8.5888   8.6008   8.6016   8.6144   8.6242   8.6347   8.6383   8.6415
     8.6505   8.6575   8.7097   8.8125   8.8178   8.8301   8.8365   8.8574
     8.8655   8.9553   8.9590   8.9968   9.0002

     the Fermi energy is     5.6545 ev

!    total energy              =   -5881.57644615 Ry
     estimated scf accuracy    <       0.00758550 Ry
     smearing contrib. (-TS)   =      -0.00000000 Ry
     internal energy E=F+TS    =   -5881.57644615 Ry

     convergence has been achieved in  18 iterations

     Using ACE for calculation of exact exchange

     EXX grid:   854265 G-vectors     FFT dimensions: ( 100,  64, 270)

     EXX: now go back to refine exchange calculation

     total cpu time spent up to now is     2778.2 secs

     per-process dynamical memory:   382.4 Mb

     Self-consistent Calculation

     iteration #  1     ecut=    80.00 Ry     beta= 0.30
     Davidson diagonalization with overlap
     ethr =  1.35E-06,  avg # of iterations = 10.0

     total cpu time spent up to now is     2791.3 secs

     total energy              =   -5839.80383634 Ry
     estimated scf accuracy    <       0.84281655 Ry

     iteration #  2     ecut=    80.00 Ry     beta= 0.30
     Davidson diagonalization with overlap
     ethr =  1.10E-04,  avg # of iterations =  1.0

     total cpu time spent up to now is     2794.3 secs

     total energy              =   -5839.66999558 Ry
     estimated scf accuracy    <       0.34600032 Ry

     iteration #  3     ecut=    80.00 Ry     beta= 0.30
     Davidson diagonalization with overlap
     ethr =  4.51E-05,  avg # of iterations =  2.0

     total cpu time spent up to now is     2798.1 secs

     total energy              =   -5839.73167772 Ry
     estimated scf accuracy    <       0.06704102 Ry

     iteration #  4     ecut=    80.00 Ry     beta= 0.30
     Davidson diagonalization with overlap
     ethr =  8.73E-06,  avg # of iterations =  2.0

     total cpu time spent up to now is     2802.1 secs

     total energy              =   -5839.72874201 Ry
     estimated scf accuracy    <       0.05679932 Ry

     iteration #  5     ecut=    80.00 Ry     beta= 0.30
     Davidson diagonalization with overlap
     ethr =  7.40E-06,  avg # of iterations =  2.0

     negative rho (up, down):  1.101E-03 0.000E+00

     total cpu time spent up to now is     2805.6 secs

     total energy              =   -5839.73582008 Ry
     estimated scf accuracy    <       0.02706223 Ry

     iteration #  6     ecut=    80.00 Ry     beta= 0.30
     Davidson diagonalization with overlap
     ethr =  3.52E-06,  avg # of iterations =  5.0

     negative rho (up, down):  3.576E-03 0.000E+00

     total cpu time spent up to now is     2810.6 secs

     total energy              =   -5839.72746520 Ry
     estimated scf accuracy    <       0.04662182 Ry

     iteration #  7     ecut=    80.00 Ry     beta= 0.30
     Davidson diagonalization with overlap
     ethr =  3.52E-06,  avg # of iterations =  3.0

     negative rho (up, down):  9.580E-03 0.000E+00

     total cpu time spent up to now is     2814.7 secs

     total energy              =   -5839.73191247 Ry
     estimated scf accuracy    <       0.01543629 Ry

     iteration #  8     ecut=    80.00 Ry     beta= 0.30
     Davidson diagonalization with overlap
     ethr =  2.01E-06,  avg # of iterations =  6.0

     negative rho (up, down):  1.106E-02 0.000E+00

     total cpu time spent up to now is     2819.0 secs

     total energy              =   -5839.73020327 Ry
     estimated scf accuracy    <       0.01207928 Ry

     iteration #  9     ecut=    80.00 Ry     beta= 0.30
     Davidson diagonalization with overlap
     ethr =  1.57E-06,  avg # of iterations =  3.5

     total cpu time spent up to now is     2822.8 secs

     End of self-consistent calculation

          k = 0.0143 0.0223 0.0000 (106809 PWs)   bands (ev):

   -56.3383 -56.3381 -56.3377 -56.3374 -56.3085 -56.3084 -56.3078 -56.3077
   -56.2635 -56.2632 -56.2627 -56.2624 -56.2394 -56.2377 -56.2347 -56.2336
   -56.2335 -56.2328 -56.2327 -56.2322 -56.2081 -56.2073 -56.2060 -56.2051
   -56.1635 -56.1634 -56.1625 -56.1624 -56.1337 -56.1337 -56.1327 -56.1327
   -31.3960 -31.3957 -31.3953 -31.3950 -31.3120 -31.3116 -31.3109 -31.3107
   -31.2880 -31.2857 -31.2836 -31.2810 -31.1709 -31.1703 -31.1651 -31.1644
   -31.1280 -31.1273 -31.1207 -31.1199 -31.1168 -31.1165 -31.1158 -31.1156
   -31.0851 -31.0847 -31.0799 -31.0797 -31.0706 -31.0700 -31.0686 -31.0679
   -31.0633 -31.0612 -31.0590 -31.0572 -31.0456 -31.0456 -31.0414 -31.0399
   -31.0393 -31.0392 -31.0380 -31.0373 -31.0285 -31.0273 -31.0266 -31.0256
   -31.0126 -31.0122 -31.0117 -31.0112 -30.9959 -30.9958 -30.9950 -30.9932
   -30.9928 -30.9927 -30.9909 -30.9902 -30.9840 -30.9837 -30.9829 -30.9823
   -30.9664 -30.9652 -30.9645 -30.9618 -30.9597 -30.9581 -30.9570 -30.9568
   -30.9517 -30.9450 -30.9437 -30.9410 -30.9358 -30.9348 -30.9333 -30.9327
   -30.9321 -30.9317 -30.9256 -30.9219 -30.8913 -30.8904 -30.8898 -30.8889
   -30.8207 -30.8206 -30.8197 -30.8196 -30.7547 -30.7546 -30.7537 -30.7536
   -15.1146 -15.0266 -14.8154 -14.7683 -14.7548 -14.6584 -14.5563 -14.5543
   -14.4305 -14.3111 -14.2997 -14.2915 -14.2859 -14.2622 -14.2571 -14.2509
   -14.2407 -14.2308 -14.2199 -14.1864 -14.1633 -14.1464 -14.1351 -14.1051
   -14.0962 -14.0758 -14.0743 -14.0501 -13.9811 -13.9758 -13.9486 -13.9320
   -13.8655 -13.8641 -13.8528 -13.8265 -13.7670 -13.7633 -13.7533 -13.7516
   -13.7436 -13.7363 -13.7283 -13.6920 -13.6784 -13.6549 -13.6507 -13.6451
   -13.6209 -13.6102 -13.5997 -13.5951 -13.5903 -13.5769 -13.5227 -13.5226
   -12.6767 -12.6759 -12.6630 -12.6622 -12.6237 -12.6228 -12.6158 -12.6150
    -1.3333  -1.2170  -1.1993  -1.1980  -1.0225  -1.0191  -1.0141  -0.9167
    -0.7621  -0.6970  -0.6847  -0.6639  -0.6582  -0.6484  -0.6102  -0.5812
    -0.5615  -0.5576  -0.5124  -0.4566  -0.4302  -0.4283  -0.3919  -0.3908
    -0.3603  -0.3561  -0.3514  -0.3500  -0.3074  -0.3041  -0.2864  -0.2600
    -0.2196  -0.2127  -0.2027  -0.1908  -0.1600  -0.1427  -0.1333  -0.1120
    -0.1060  -0.0939  -0.0520  -0.0411  -0.0389  -0.0339  -0.0287   0.0005
     0.0683   0.0865   0.0960   0.0963   0.1201   0.1559   0.1842   0.2173
     0.2611   0.2889   0.3056   0.3260   0.3396   0.3511   0.5094   0.5990
     0.6157   0.6497   0.6752   0.6775   0.6958   0.7385   0.7608   0.7731
     0.8107   0.9162   0.9222   0.9332   0.9677   1.0190   1.0677   1.0811
     1.0977   1.1340   1.2297   1.2599   1.3725   1.3778   1.4585   1.4636
     1.4708   1.5311   1.5720   1.6023   1.6302   1.6354   1.6488   1.6633
     1.6954   1.7381   1.7749   1.7828   1.7972   1.8090   1.8391   1.8828
     1.8892   1.9022   1.9369   1.9436   1.9579   1.9657   1.9749   1.9977
     2.0114   2.0136   2.0523   2.0622   2.0738   2.1263   2.2055   2.2190
     2.2328   2.2494   2.2809   2.3024   2.3383   2.3632   2.3773   2.4328
     2.4568   2.5382   2.5391   2.5560   2.5581   2.5896   2.6316   2.6490
     2.6529   2.6610   2.6887   2.6930   2.6933   2.7688   2.8065   2.8468
     2.8726   2.8821   2.9073   2.9082   2.9112   2.9163   2.9304   3.0508
     3.0571   3.0577   3.0746   3.0865   3.1412   3.1456   3.1777   3.2174
     3.2864   3.3030   3.3180   3.3882   3.4283   3.4474   3.4647   3.4686
     3.4874   3.4991   3.4992   3.5147   3.5235   3.5685   3.5743   3.6096
     3.6494   3.6572   3.6638   3.7547   3.8162   3.8720   3.8812   3.8903
     3.8947   3.9233   3.9282   3.9393   4.0112   4.0678   4.1104   4.2860
     8.0117   8.0356   8.0730   8.0863   8.1341   8.1713   8.1786   8.2198
     8.2260   8.2460   8.2752   8.3836   8.3972   8.4147   8.4345   8.4375
     8.4381   8.4869   8.5282   8.5436   8.5826   8.6368   8.6601   8.6725
     8.6816   8.7136   8.7142   8.7325   8.7329   8.7355   8.7782   8.7870
     8.7870   8.8045   8.8635   8.8636   8.8657   8.8846   8.8872   8.9501
     9.0056   9.0109   9.0344   9.0360   9.0521   9.0791   9.0832   9.1208
     9.1243   9.1346   9.1520   9.1827   9.1865   9.1963   9.2542   9.2844
     9.3001   9.3095   9.3501   9.3538   9.3566   9.3638   9.3664   9.4095
     9.4570   9.4625   9.4739   9.5529   9.5573   9.5594   9.5604   9.5752
     9.6022   9.6090   9.6997   9.7437   9.7837

          k = 0.0143-0.0223 0.0000 (106809 PWs)   bands (ev):

   -56.3383 -56.3381 -56.3377 -56.3374 -56.3085 -56.3084 -56.3078 -56.3077
   -56.2635 -56.2632 -56.2627 -56.2624 -56.2394 -56.2377 -56.2347 -56.2336
   -56.2335 -56.2328 -56.2327 -56.2322 -56.2081 -56.2073 -56.2060 -56.2051
   -56.1635 -56.1634 -56.1625 -56.1624 -56.1337 -56.1337 -56.1327 -56.1327
   -31.3960 -31.3957 -31.3953 -31.3950 -31.3120 -31.3116 -31.3109 -31.3107
   -31.2880 -31.2857 -31.2836 -31.2810 -31.1709 -31.1703 -31.1651 -31.1644
   -31.1280 -31.1273 -31.1207 -31.1199 -31.1168 -31.1165 -31.1158 -31.1156
   -31.0851 -31.0847 -31.0799 -31.0797 -31.0706 -31.0700 -31.0686 -31.0679
   -31.0633 -31.0612 -31.0590 -31.0572 -31.0456 -31.0456 -31.0414 -31.0399
   -31.0393 -31.0392 -31.0380 -31.0373 -31.0285 -31.0273 -31.0266 -31.0256
   -31.0126 -31.0122 -31.0117 -31.0112 -30.9959 -30.9958 -30.9950 -30.9932
   -30.9928 -30.9927 -30.9909 -30.9902 -30.9840 -30.9837 -30.9829 -30.9823
   -30.9664 -30.9652 -30.9645 -30.9618 -30.9597 -30.9580 -30.9570 -30.9568
   -30.9517 -30.9450 -30.9437 -30.9410 -30.9358 -30.9348 -30.9333 -30.9327
   -30.9322 -30.9317 -30.9256 -30.9219 -30.8913 -30.8904 -30.8898 -30.8889
   -30.8207 -30.8206 -30.8197 -30.8196 -30.7547 -30.7546 -30.7537 -30.7536
   -15.1146 -15.0266 -14.8154 -14.7683 -14.7548 -14.6584 -14.5563 -14.5543
   -14.4305 -14.3111 -14.2997 -14.2915 -14.2859 -14.2622 -14.2571 -14.2509
   -14.2407 -14.2308 -14.2199 -14.1864 -14.1633 -14.1464 -14.1351 -14.1051
   -14.0962 -14.0758 -14.0743 -14.0501 -13.9811 -13.9758 -13.9486 -13.9320
   -13.8655 -13.8641 -13.8528 -13.8265 -13.7670 -13.7633 -13.7533 -13.7516
   -13.7436 -13.7363 -13.7283 -13.6920 -13.6784 -13.6549 -13.6507 -13.6451
   -13.6209 -13.6102 -13.5997 -13.5951 -13.5903 -13.5769 -13.5227 -13.5226
   -12.6767 -12.6759 -12.6630 -12.6622 -12.6237 -12.6228 -12.6158 -12.6150
    -1.3333  -1.2170  -1.1993  -1.1980  -1.0225  -1.0191  -1.0141  -0.9167
    -0.7621  -0.6970  -0.6847  -0.6639  -0.6582  -0.6484  -0.6102  -0.5812
    -0.5615  -0.5576  -0.5124  -0.4566  -0.4303  -0.4283  -0.3919  -0.3908
    -0.3603  -0.3561  -0.3514  -0.3500  -0.3074  -0.3041  -0.2864  -0.2600
    -0.2196  -0.2127  -0.2027  -0.1908  -0.1600  -0.1427  -0.1333  -0.1120
    -0.1060  -0.0939  -0.0520  -0.0411  -0.0389  -0.0339  -0.0287   0.0005
     0.0683   0.0865   0.0960   0.0963   0.1201   0.1558   0.1842   0.2173
     0.2611   0.2889   0.3056   0.3260   0.3396   0.3511   0.5094   0.5990
     0.6157   0.6497   0.6752   0.6774   0.6959   0.7385   0.7608   0.7731
     0.8107   0.9162   0.9222   0.9332   0.9677   1.0190   1.0677   1.0811
     1.0977   1.1340   1.2297   1.2599   1.3725   1.3778   1.4585   1.4637
     1.4709   1.5311   1.5720   1.6023   1.6302   1.6354   1.6488   1.6632
     1.6954   1.7381   1.7749   1.7828   1.7972   1.8090   1.8391   1.8828
     1.8892   1.9022   1.9369   1.9436   1.9579   1.9657   1.9749   1.9977
     2.0114   2.0136   2.0523   2.0621   2.0738   2.1263   2.2055   2.2190
     2.2328   2.2494   2.2809   2.3023   2.3383   2.3632   2.3773   2.4328
     2.4568   2.5382   2.5391   2.5560   2.5580   2.5896   2.6316   2.6490
     2.6529   2.6610   2.6887   2.6929   2.6933   2.7688   2.8065   2.8468
     2.8726   2.8821   2.9073   2.9082   2.9113   2.9163   2.9304   3.0508
     3.0570   3.0577   3.0746   3.0865   3.1412   3.1456   3.1777   3.2174
     3.2864   3.3030   3.3180   3.3882   3.4283   3.4474   3.4647   3.4686
     3.4874   3.4991   3.4992   3.5147   3.5235   3.5685   3.5743   3.6096
     3.6494   3.6572   3.6638   3.7546   3.8162   3.8720   3.8812   3.8903
     3.8947   3.9233   3.9281   3.9393   4.0112   4.0678   4.1104   4.2860
     8.0117   8.0356   8.0730   8.0862   8.1341   8.1714   8.1787   8.2198
     8.2261   8.2459   8.2752   8.3836   8.3973   8.4146   8.4344   8.4375
     8.4381   8.4869   8.5281   8.5436   8.5826   8.6368   8.6601   8.6723
     8.6815   8.7134   8.7143   8.7325   8.7329   8.7355   8.7782   8.7870
     8.7870   8.8046   8.8635   8.8637   8.8657   8.8846   8.8873   8.9501
     9.0056   9.0109   9.0343   9.0362   9.0521   9.0790   9.0833   9.1209
     9.1245   9.1352   9.1521   9.1827   9.1866   9.1963   9.2534   9.2843
     9.3001   9.3063   9.3501   9.3530   9.3566   9.3610   9.3643   9.4109
     9.4570   9.4625   9.4740   9.5495   9.5534   9.5610   9.5623   9.5754
     9.6022   9.6119   9.6994   9.7411   9.7838

     the Fermi energy is     6.0887 ev

!    total energy              =   -5839.72608522 Ry
     estimated scf accuracy    <       0.00647481 Ry
     smearing contrib. (-TS)   =      -0.00000000 Ry
     internal energy E=F+TS    =   -5839.72608522 Ry

     convergence has been achieved in   9 iterations

     Using ACE for calculation of exact exchange

     total energy              =   -5839.77263216 Ry
     Harris-Foulkes estimate   =   -5839.77822721 Ry
     est. exchange err (dexx)  =       0.04654694 Ry
     - averaged Fock potential =     369.62506286 Ry
     + Fock energy (ACE)       =    -184.94992300 Ry

     EXX: now go back to refine exchange calculation

     total cpu time spent up to now is     5493.1 secs

     per-process dynamical memory:   382.4 Mb

     Self-consistent Calculation

     iteration #  1     ecut=    80.00 Ry     beta= 0.30
     Davidson diagonalization with overlap
     ethr =  1.57E-06,  avg # of iterations =  8.0

     total cpu time spent up to now is     5502.0 secs

     total energy              =   -5839.79511834 Ry
     estimated scf accuracy    <       0.06749410 Ry

     iteration #  2     ecut=    80.00 Ry     beta= 0.30
     Davidson diagonalization with overlap
     ethr =  8.79E-06,  avg # of iterations =  1.0

     total cpu time spent up to now is     5504.9 secs

     total energy              =   -5839.79022393 Ry
     estimated scf accuracy    <       0.05454655 Ry

     iteration #  3     ecut=    80.00 Ry     beta= 0.30
     Davidson diagonalization with overlap
     ethr =  7.10E-06,  avg # of iterations =  2.0

     total cpu time spent up to now is     5508.2 secs

     total energy              =   -5839.78845897 Ry
     estimated scf accuracy    <       0.03744885 Ry

     iteration #  4     ecut=    80.00 Ry     beta= 0.30
     Davidson diagonalization with overlap
     ethr =  4.88E-06,  avg # of iterations =  2.0

     total cpu time spent up to now is     5511.5 secs

     total energy              =   -5839.78811347 Ry
     estimated scf accuracy    <       0.02892856 Ry

     iteration #  5     ecut=    80.00 Ry     beta= 0.30
     Davidson diagonalization with overlap
     ethr =  3.77E-06,  avg # of iterations =  5.0

     total cpu time spent up to now is     5515.5 secs

     total energy              =   -5839.78414968 Ry
     estimated scf accuracy    <       0.02047618 Ry

     iteration #  6     ecut=    80.00 Ry     beta= 0.30
     Davidson diagonalization with overlap
     ethr =  2.67E-06,  avg # of iterations =  6.0

     total cpu time spent up to now is     5520.1 secs

     total energy              =   -5839.78566815 Ry
     estimated scf accuracy    <       0.01136449 Ry

     iteration #  7     ecut=    80.00 Ry     beta= 0.30
     Davidson diagonalization with overlap
     ethr =  1.48E-06,  avg # of iterations =  2.0

     total cpu time spent up to now is     5523.6 secs

     End of self-consistent calculation

          k = 0.0143 0.0223 0.0000 (106809 PWs)   bands (ev):

   -56.6994 -56.6972 -56.6942 -56.6922 -56.6678 -56.6669 -56.6656 -56.6648
   -56.5893 -56.5893 -56.5888 -56.5887 -56.5600 -56.5599 -56.5594 -56.5594
   -56.4675 -56.4674 -56.4669 -56.4668 -56.4381 -56.4380 -56.4375 -56.4374
   -56.1049 -56.1047 -56.1041 -56.1041 -56.0752 -56.0750 -56.0744 -56.0744
   -31.7356 -31.7338 -31.7312 -31.7298 -31.6231 -31.6229 -31.6225 -31.6223
   -31.5246 -31.5241 -31.5182 -31.5173 -31.5137 -31.5136 -31.5131 -31.5130
   -31.4464 -31.4463 -31.4447 -31.4411 -31.4280 -31.4263 -31.4253 -31.4232
   -31.3957 -31.3933 -31.3931 -31.3919 -31.3908 -31.3908 -31.3899 -31.3888
   -31.3650 -31.3615 -31.3605 -31.3599 -31.3411 -31.3407 -31.3394 -31.3383
   -31.3010 -31.3004 -31.3004 -31.2998 -31.2981 -31.2979 -31.2976 -31.2973
   -31.2797 -31.2792 -31.2790 -31.2783 -31.2464 -31.2458 -31.2446 -31.2440
   -31.1952 -31.1950 -31.1946 -31.1944 -31.1819 -31.1818 -31.1813 -31.1812
   -31.1751 -31.1748 -31.1745 -31.1742 -31.1686 -31.1684 -31.1680 -31.1678
   -31.0327 -31.0326 -31.0320 -31.0319 -30.9822 -30.9815 -30.9815 -30.9808
   -30.9574 -30.9571 -30.9566 -30.9564 -30.8335 -30.8330 -30.8327 -30.8322
   -30.7589 -30.7587 -30.7582 -30.7580 -30.6974 -30.6973 -30.6967 -30.6966
   -15.3863 -15.1594 -15.0499 -14.9500 -14.9234 -14.8198 -14.7254 -14.7066
   -14.5954 -14.5616 -14.5418 -14.5314 -14.5076 -14.4626 -14.4610 -14.4178
   -14.3852 -14.3438 -14.3334 -14.3328 -14.2695 -14.2322 -14.2319 -14.2318
   -14.2203 -14.1806 -14.1350 -14.1304 -14.1284 -14.1232 -14.1087 -14.1003
   -14.0271 -14.0244 -14.0229 -14.0171 -13.9764 -13.9727 -13.9662 -13.9607
   -13.9080 -13.8915 -13.8668 -13.8605 -13.8580 -13.8541 -13.8282 -13.8278
   -13.8178 -13.8149 -13.8146 -13.8079 -13.7772 -13.7750 -13.7349 -13.7224
   -12.5310 -12.5308 -12.5182 -12.5179 -12.4738 -12.4735 -12.4663 -12.4660
    -1.6203  -1.4820  -1.4782  -1.4300  -1.1909  -1.1684  -1.1620  -1.1194
    -0.9462  -0.9431  -0.9201  -0.9127  -0.8759  -0.8695  -0.8367  -0.8344
    -0.8265  -0.7606  -0.6947  -0.6831  -0.6512  -0.6157  -0.6053  -0.5954
    -0.5720  -0.5509  -0.4783  -0.4486  -0.4153  -0.4146  -0.4128  -0.4066
    -0.3991  -0.3902  -0.3547  -0.3493  -0.3480  -0.3372  -0.3092  -0.2932
    -0.2577  -0.2524  -0.2469  -0.2224  -0.1911  -0.1899  -0.1646  -0.1065
    -0.1050  -0.1029  -0.1014  -0.0733  -0.0606  -0.0106  -0.0103   0.0755
     0.0835   0.1299   0.1588   0.1647   0.1757   0.1832   0.3076   0.3846
     0.4515   0.4983   0.5026   0.5303   0.5722   0.6686   0.7106   0.7557
     0.7830   0.8080   0.8209   0.8284   0.8542   0.9201   0.9377   0.9461
     0.9593   0.9954   1.0880   1.1047   1.2228   1.2314   1.2365   1.2383
     1.3001   1.3608   1.3647   1.3830   1.4049   1.4564   1.4579   1.4864
     1.5238   1.5264   1.5762   1.5869   1.5895   1.6002   1.6409   1.6590
     1.6796   1.7259   1.7260   1.7607   1.7715   1.7728   1.7834   1.8424
     1.8523   1.8694   1.8880   1.9578   1.9714   2.0125   2.0582   2.0653
     2.0840   2.1130   2.1507   2.1684   2.1723   2.2549   2.2849   2.2900
     2.3062   2.3537   2.3936   2.3968   2.4305   2.4419   2.4516   2.4607
     2.5044   2.5206   2.5233   2.5437   2.5480   2.5605   2.5955   2.6211
     2.7045   2.7266   2.7829   2.8027   2.8039   2.8042   2.8273   2.9252
     2.9274   2.9626   2.9659   2.9855   3.0965   3.1063   3.1230   3.1301
     3.1625   3.1735   3.1830   3.2174   3.2447   3.2579   3.2631   3.2720
     3.2845   3.3572   3.3700   3.4149   3.4690   3.4857   3.5877   3.6067
     3.6095   3.6269   3.6275   3.6887   3.7747   3.8070   3.9143   3.9684
     3.9691   3.9708   3.9740   4.0136   4.0184   4.0191   4.1383   4.1419
     7.7671   7.8187   7.8649   7.9340   7.9698   7.9802   7.9967   8.0641
     8.0667   8.0713   8.1296   8.1577   8.2262   8.2430   8.2620   8.2762
     8.2771   8.2772   8.3382   8.3792   8.3812   8.3824   8.4216   8.4295
     8.4340   8.4953   8.5095   8.5572   8.5916   8.6151   8.6178   8.6258
     8.6292   8.6330   8.6884   8.7285   8.7523   8.7527   8.7527   8.7976
     8.8273   8.8916   8.9003   8.9249   8.9492   8.9513   8.9551   8.9815
     9.0258   9.0260   9.0590   9.0706   9.0764   9.0921   9.1030   9.1071
     9.1259   9.1407   9.1654   9.1713   9.1745   9.1750   9.1767   9.1816
     9.1936   9.2094   9.2587   9.3446   9.3757   9.3797   9.4169   9.4171
     9.4245   9.5176   9.5190   9.5521   9.6035

          k = 0.0143-0.0223 0.0000 (106809 PWs)   bands (ev):

   -56.6994 -56.6972 -56.6942 -56.6922 -56.6678 -56.6669 -56.6656 -56.6648
   -56.5893 -56.5893 -56.5888 -56.5887 -56.5600 -56.5599 -56.5594 -56.5594
   -56.4675 -56.4674 -56.4669 -56.4668 -56.4381 -56.4380 -56.4375 -56.4374
   -56.1049 -56.1047 -56.1041 -56.1041 -56.0752 -56.0750 -56.0744 -56.0744
   -31.7356 -31.7338 -31.7312 -31.7298 -31.6231 -31.6229 -31.6225 -31.6223
   -31.5246 -31.5241 -31.5182 -31.5173 -31.5137 -31.5136 -31.5131 -31.5130
   -31.4464 -31.4463 -31.4447 -31.4411 -31.4280 -31.4263 -31.4253 -31.4232
   -31.3957 -31.3933 -31.3931 -31.3919 -31.3908 -31.3908 -31.3899 -31.3888
   -31.3650 -31.3615 -31.3605 -31.3599 -31.3411 -31.3407 -31.3394 -31.3383
   -31.3010 -31.3004 -31.3004 -31.2998 -31.2981 -31.2979 -31.2976 -31.2973
   -31.2797 -31.2792 -31.2790 -31.2783 -31.2464 -31.2458 -31.2446 -31.2440
   -31.1952 -31.1950 -31.1946 -31.1944 -31.1819 -31.1818 -31.1813 -31.1812
   -31.1751 -31.1748 -31.1745 -31.1742 -31.1686 -31.1684 -31.1680 -31.1678
   -31.0327 -31.0326 -31.0320 -31.0319 -30.9822 -30.9815 -30.9815 -30.9808
   -30.9574 -30.9571 -30.9566 -30.9564 -30.8335 -30.8330 -30.8327 -30.8322
   -30.7589 -30.7587 -30.7582 -30.7580 -30.6974 -30.6973 -30.6967 -30.6966
   -15.3863 -15.1594 -15.0499 -14.9500 -14.9234 -14.8198 -14.7254 -14.7066
   -14.5954 -14.5616 -14.5418 -14.5314 -14.5076 -14.4626 -14.4610 -14.4178
   -14.3852 -14.3438 -14.3334 -14.3328 -14.2695 -14.2322 -14.2319 -14.2318
   -14.2203 -14.1806 -14.1350 -14.1304 -14.1284 -14.1232 -14.1087 -14.1003
   -14.0271 -14.0244 -14.0229 -14.0171 -13.9764 -13.9727 -13.9662 -13.9607
   -13.9080 -13.8915 -13.8668 -13.8605 -13.8580 -13.8541 -13.8282 -13.8278
   -13.8178 -13.8149 -13.8146 -13.8079 -13.7772 -13.7750 -13.7349 -13.7224
   -12.5310 -12.5308 -12.5182 -12.5179 -12.4738 -12.4735 -12.4663 -12.4660
    -1.6203  -1.4820  -1.4782  -1.4300  -1.1909  -1.1684  -1.1620  -1.1194
    -0.9462  -0.9431  -0.9201  -0.9127  -0.8759  -0.8695  -0.8367  -0.8344
    -0.8265  -0.7606  -0.6947  -0.6831  -0.6512  -0.6157  -0.6053  -0.5954
    -0.5720  -0.5509  -0.4783  -0.4486  -0.4153  -0.4146  -0.4128  -0.4066
    -0.3991  -0.3902  -0.3547  -0.3493  -0.3480  -0.3372  -0.3092  -0.2932
    -0.2577  -0.2524  -0.2469  -0.2224  -0.1911  -0.1899  -0.1646  -0.1065
    -0.1050  -0.1029  -0.1014  -0.0733  -0.0606  -0.0106  -0.0103   0.0755
     0.0835   0.1299   0.1588   0.1647   0.1757   0.1832   0.3075   0.3846
     0.4515   0.4983   0.5026   0.5303   0.5722   0.6686   0.7106   0.7557
     0.7830   0.8080   0.8209   0.8284   0.8542   0.9201   0.9377   0.9461
     0.9593   0.9954   1.0880   1.1047   1.2228   1.2314   1.2365   1.2383
     1.3001   1.3608   1.3647   1.3830   1.4049   1.4564   1.4579   1.4864
     1.5238   1.5264   1.5762   1.5869   1.5895   1.6002   1.6409   1.6590
     1.6796   1.7259   1.7260   1.7607   1.7715   1.7728   1.7834   1.8424
     1.8523   1.8694   1.8880   1.9578   1.9714   2.0125   2.0582   2.0653
     2.0840   2.1130   2.1507   2.1684   2.1723   2.2549   2.2849   2.2900
     2.3062   2.3537   2.3936   2.3968   2.4305   2.4419   2.4516   2.4607
     2.5044   2.5206   2.5233   2.5437   2.5480   2.5605   2.5955   2.6211
     2.7045   2.7266   2.7829   2.8027   2.8039   2.8042   2.8273   2.9252
     2.9275   2.9626   2.9659   2.9855   3.0965   3.1063   3.1230   3.1301
     3.1625   3.1735   3.1830   3.2174   3.2447   3.2579   3.2631   3.2720
     3.2845   3.3572   3.3700   3.4149   3.4690   3.4857   3.5877   3.6067
     3.6095   3.6269   3.6275   3.6887   3.7747   3.8070   3.9143   3.9684
     3.9691   3.9708   3.9740   4.0136   4.0184   4.0191   4.1384   4.1419
     7.7671   7.8187   7.8649   7.9340   7.9698   7.9802   7.9967   8.0641
     8.0667   8.0713   8.1296   8.1577   8.2262   8.2430   8.2620   8.2762
     8.2771   8.2772   8.3382   8.3791   8.3812   8.3824   8.4216   8.4295
     8.4340   8.4953   8.5095   8.5572   8.5916   8.6150   8.6178   8.6258
     8.6292   8.6330   8.6883   8.7286   8.7523   8.7527   8.7527   8.7976
     8.8273   8.8917   8.9003   8.9249   8.9492   8.9513   8.9551   8.9814
     9.0258   9.0260   9.0589   9.0706   9.0764   9.0921   9.1029   9.1071
     9.1259   9.1406   9.1654   9.1711   9.1745   9.1751   9.1767   9.1813
     9.1936   9.2101   9.2586   9.3439   9.3756   9.3817   9.4165   9.4169
     9.4245   9.5176   9.5189   9.5520   9.6019

     the Fermi energy is     5.8970 ev

!    total energy              =   -5839.77865015 Ry
     estimated scf accuracy    <       0.00967791 Ry
     smearing contrib. (-TS)   =      -0.00000000 Ry
     internal energy E=F+TS    =   -5839.77865015 Ry

     convergence has been achieved in   7 iterations

     Using ACE for calculation of exact exchange

!!   total energy              =   -5839.78094698 Ry
     Harris-Foulkes estimate   =   -5839.78813974 Ry
     est. exchange err (dexx)  =       0.00229683 Ry
     - averaged Fock potential =     369.92460031 Ry
     + Fock energy (ACE)       =    -184.97697414 Ry

     EXX self-consistency reached

     Forces acting on atoms (cartesian axes, Ry/au):

     atom    1 type  1   force =    -0.00994589   -0.00002590   -0.00645627
     atom    2 type  1   force =    -0.00661374    0.00000513   -0.00775289
     atom    3 type  1   force =    -0.04016984    0.00001994   -0.01008154
     atom    4 type  1   force =    -0.10978815    0.00000438    0.05422187
     atom    5 type  1   force =     0.00695711   -0.00000343    0.00702745
     atom    6 type  1   force =    -0.00565231   -0.00000011   -0.00561969
     atom    7 type  1   force =     0.00335858   -0.00000184   -0.00392829
     atom    8 type  1   force =    -0.00860949   -0.00000146    0.00763922
     atom    9 type  1   force =     0.00335138   -0.00000204    0.00391511
     atom   10 type  1   force =    -0.00861891    0.00000060   -0.00765996
     atom   11 type  1   force =     0.00695711   -0.00000025   -0.00702929
     atom   12 type  1   force =    -0.00565334    0.00000208    0.00561911
     atom   13 type  1   force =    -0.04015133    0.00001438    0.01006259
     atom   14 type  1   force =    -0.10981070    0.00000342   -0.05421969
     atom   15 type  1   force =    -0.00994873   -0.00003260    0.00646930
     atom   16 type  1   force =    -0.00661721    0.00000490    0.00773284
     atom   17 type  1   force =    -0.00994541   -0.00004104   -0.00645357
     atom   18 type  1   force =    -0.00661161    0.00000494   -0.00774416
     atom   19 type  1   force =    -0.04012661    0.00001944   -0.01010728
     atom   20 type  1   force =    -0.10977996    0.00001276    0.05424156
     atom   21 type  1   force =     0.00695392   -0.00000505    0.00702488
     atom   22 type  1   force =    -0.00565236    0.00000112   -0.00562242
     atom   23 type  1   force =     0.00335556   -0.00000153   -0.00392405
     atom   24 type  1   force =    -0.00860585   -0.00000158    0.00763892
     atom   25 type  1   force =     0.00335732   -0.00000040    0.00392028
     atom   26 type  1   force =    -0.00861736    0.00000291   -0.00766493
     atom   27 type  1   force =     0.00695622   -0.00000329   -0.00703066
     atom   28 type  1   force =    -0.00564985    0.00000195    0.00561889
     atom   29 type  1   force =    -0.04017284    0.00001671    0.01004201
     atom   30 type  1   force =    -0.10979951    0.00000419   -0.05423492
     atom   31 type  1   force =    -0.00995486   -0.00002621    0.00647612
     atom   32 type  1   force =    -0.00661995    0.00001171    0.00773571
     atom   33 type  1   force =    -0.00994253   -0.00002281   -0.00644472
     atom   34 type  1   force =    -0.00662429   -0.00000051   -0.00775156
     atom   35 type  1   force =    -0.04012620    0.00001397   -0.01011210
     atom   36 type  1   force =    -0.10978671    0.00001973    0.05421606
     atom   37 type  1   force =     0.00695925   -0.00000198    0.00702470
     atom   38 type  1   force =    -0.00565277    0.00000136   -0.00562532
     atom   39 type  1   force =     0.00335081    0.00000218   -0.00392232
     atom   40 type  1   force =    -0.00859811    0.00000094    0.00763362
     atom   41 type  1   force =     0.00335596   -0.00000464    0.00391322
     atom   42 type  1   force =    -0.00862317   -0.00000117   -0.00766171
     atom   43 type  1   force =     0.00695676   -0.00000108   -0.00703199
     atom   44 type  1   force =    -0.00564676    0.00000260    0.00561394
     atom   45 type  1   force =    -0.04018126    0.00001995    0.01005206
     atom   46 type  1   force =    -0.10981549   -0.00000301   -0.05423124
     atom   47 type  1   force =    -0.00995199   -0.00002278    0.00646684
     atom   48 type  1   force =    -0.00662331    0.00000397    0.00773753
     atom   49 type  1   force =    -0.00994309   -0.00003556   -0.00644594
     atom   50 type  1   force =    -0.00662064    0.00000972   -0.00774946
     atom   51 type  1   force =    -0.04015451    0.00001378   -0.01009062
     atom   52 type  1   force =    -0.10977516    0.00000784    0.05424041
     atom   53 type  1   force =     0.00696381    0.00000028    0.00703199
     atom   54 type  1   force =    -0.00565314    0.00000074   -0.00562331
     atom   55 type  1   force =     0.00334543   -0.00000342   -0.00391981
     atom   56 type  1   force =    -0.00861406   -0.00000205    0.00764646
     atom   57 type  1   force =     0.00335510   -0.00000119    0.00391380
     atom   58 type  1   force =    -0.00861507   -0.00000068   -0.00765784
     atom   59 type  1   force =     0.00696351   -0.00000134   -0.00703716
     atom   60 type  1   force =    -0.00564937   -0.00000179    0.00561593
     atom   61 type  1   force =    -0.04017513    0.00001292    0.01006764
     atom   62 type  1   force =    -0.10981598    0.00000399   -0.05423883
     atom   63 type  1   force =    -0.00994158   -0.00000951    0.00647033
     atom   64 type  1   force =    -0.00661443    0.00000491    0.00774024
     atom   65 type  2   force =     0.16579466    0.00000658   -0.02378441
     atom   66 type  2   force =     0.00516890    0.00000097   -0.01402869
     atom   67 type  2   force =    -0.00166997   -0.00000107   -0.01463035
     atom   68 type  2   force =     0.00118989    0.00000088   -0.00722425
     atom   69 type  2   force =     0.00119481    0.00000107    0.00724232
     atom   70 type  2   force =    -0.00168694    0.00000073    0.01464241
     atom   71 type  2   force =     0.00515422   -0.00000003    0.01403547
     atom   72 type  2   force =     0.16581063   -0.00000524    0.02380127
     atom   73 type  2   force =     0.16579165   -0.00000257   -0.02378165
     atom   74 type  2   force =     0.00517505   -0.00000394   -0.01402745
     atom   75 type  2   force =    -0.00167091    0.00000125   -0.01462954
     atom   76 type  2   force =     0.00119130    0.00000105   -0.00722739
     atom   77 type  2   force =     0.00119236   -0.00000071    0.00723777
     atom   78 type  2   force =    -0.00168506   -0.00000165    0.01464632
     atom   79 type  2   force =     0.00515261    0.00000089    0.01404250
     atom   80 type  2   force =     0.16583221    0.00000575    0.02381295
     atom   81 type  2   force =     0.16579138   -0.00000877   -0.02378394
     atom   82 type  2   force =     0.00516321    0.00000078   -0.01402808
     atom   83 type  2   force =    -0.00170177   -0.00000099   -0.01462235
     atom   84 type  2   force =     0.00118250   -0.00000033   -0.00721637
     atom   85 type  2   force =     0.00119433    0.00000174    0.00724439
     atom   86 type  2   force =    -0.00170503    0.00000077    0.01464897
     atom   87 type  2   force =     0.00516953    0.00000298    0.01404268
     atom   88 type  2   force =     0.16582414    0.00000708    0.02381680
     atom   89 type  2   force =     0.16580040    0.00001027   -0.02378989
     atom   90 type  2   force =     0.00515830   -0.00000207   -0.01403544
     atom   91 type  2   force =    -0.00170390    0.00000087   -0.01462538
     atom   92 type  2   force =     0.00118425   -0.00000180   -0.00721665
     atom   93 type  2   force =     0.00119421   -0.00000130    0.00724289
     atom   94 type  2   force =    -0.00170291    0.00000030    0.01465166
     atom   95 type  2   force =     0.00517269   -0.00000027    0.01403222
     atom   96 type  2   force =     0.16580598   -0.00000242    0.02381411

     Total force =     0.605495     Total SCF correction =     0.557069
     SCF correction compared to forces is large: reduce conv_thr to get better values

     Writing all to output data dir ./calc.save/

     init_run     :      4.20s CPU      4.31s WALL (       1 calls)
     electrons    :    159.93s CPU    163.14s WALL (       3 calls)
     forces       :      1.02s CPU      1.06s WALL (       1 calls)

     Called by init_run:
     wfcinit      :      3.02s CPU      3.13s WALL (       1 calls)
     potinit      :      0.54s CPU      0.54s WALL (       1 calls)
     hinit0       :      0.39s CPU      0.39s WALL (       1 calls)

     Called by electrons:
     c_bands      :    150.05s CPU    152.65s WALL (      34 calls)
     sum_band     :      9.14s CPU      9.41s WALL (      34 calls)
     v_of_rho     :      0.87s CPU      0.89s WALL (      36 calls)
     mix_rho      :      0.09s CPU      0.09s WALL (      34 calls)

     Called by c_bands:
     init_us_2    :      0.18s CPU      0.19s WALL (     140 calls)
     init_us_2:cp :      0.18s CPU      0.19s WALL (     140 calls)
     cegterg      :    148.65s CPU    151.21s WALL (      68 calls)

     Called by *egterg:
     cdiaghg      :     49.85s CPU     50.05s WALL (     411 calls)
     h_psi        :     68.58s CPU     70.63s WALL (     417 calls)
     g_psi        :      0.09s CPU      0.09s WALL (     347 calls)

     Called by h_psi:
     h_psi:calbec :     10.78s CPU     11.31s WALL (     417 calls)
     vloc_psi     :     46.90s CPU     48.23s WALL (     417 calls)
     add_vuspsi   :      7.74s CPU      7.83s WALL (     417 calls)

     General routines
     calbec       :     13.76s CPU     14.44s WALL (     604 calls)
     fft          :      0.88s CPU      0.90s WALL (     366 calls)
     ffts         :      0.03s CPU      0.03s WALL (      34 calls)
     fftw         :     53.88s CPU     55.43s WALL (  192254 calls)
     fftc         :   7426.44s CPU   7516.95s WALL (10201008 calls)
     fftcw        :      2.95s CPU      3.01s WALL (    8298 calls)

     Parallel routines
     fft_scatt_xy :    113.58s CPU    114.71s WALL (10401960 calls)
     fft_scatt_yz :   6482.76s CPU   6567.02s WALL (10401960 calls)

     EXX routines
     exx_grid     :      0.00s CPU      0.00s WALL (       1 calls)
     exxinit      :     54.23s CPU     56.09s WALL (       3 calls)
     vexx         :   7862.69s CPU   7957.98s WALL (       6 calls)
     matcalc      :      2.53s CPU      2.65s WALL (     179 calls)
     aceupdate    :      0.12s CPU      0.12s WALL (       6 calls)
     vexxace      :      3.66s CPU      3.78s WALL (     163 calls)
     aceinit      :   7862.94s CPU   7958.24s WALL (       6 calls)

     PWSCF        :      2h14m CPU      2h16m WALL


   This run was terminated on:   2:13:24  24Feb2023            

=------------------------------------------------------------------------------=
   JOB DONE.
=------------------------------------------------------------------------------=
