:MDSTEP: 20
:R(Bohr):
  5.3411991289E+01   1.4868867559E-02   4.6420101394E+01
  3.9982806315E+00   5.3077586364E+01   5.0248644352E+01
  5.3478421522E+01   3.1875017135E+00   4.9678899966E+01
  5.3135893547E+01   3.9667026448E-01   3.8235516386E+01
  3.6659641203E+00   5.3479854119E+01   4.1598579086E+01
  7.1065811016E+00   3.5788458434E-01   4.5645446356E+01
  1.0689598032E+01   5.3347138311E+01   4.9984172058E+01
  5.3452336767E+01   4.0135851768E+00   4.2668766184E+01
  3.7695139462E+00   3.5067163977E+00   4.6123117043E+01
  7.3191028636E+00   3.7648604063E+00   4.9156676300E+01
  5.3486789850E+01   7.4326750000E+00   4.6116783373E+01
  3.9665820663E+00   7.6416970876E+00   5.0267187969E+01
  5.3512134702E+01   1.1714335653E+01   4.9534073817E+01
  6.5828218886E-01   5.3438851994E+01   3.0228339331E+01
  3.0206394816E+00   3.5218310646E-01   3.4087277467E+01
  7.7785974852E+00   5.2960207688E+01   3.8405903713E+01
  1.1192896212E+01   5.3426994862E+01   4.2400963746E+01
  1.5089367345E+01   3.0703061828E-01   4.5726893268E+01
  1.8954202728E+01   5.3381273384E+01   4.9682861491E+01
  5.3516862556E+01   3.9493532388E+00   3.4112123841E+01
  3.9816421381E+00   3.5834265135E+00   3.8113548761E+01
  8.2785648751E+00   3.6422580309E+00   4.2219872029E+01
  1.1393653359E+01   3.7164013802E+00   4.5932987772E+01
  1.5394533298E+01   4.3348274672E+00   4.9654839563E+01
  1.2434575263E-01   8.2694699336E+00   3.8281649785E+01
  4.1420871917E+00   7.4019571780E+00   4.1447548824E+01
  7.1196967574E+00   7.8937286846E+00   4.5728188882E+01
  1.1176400629E+01   7.6404305578E+00   4.9829141369E+01
  5.3067772271E+01   1.1350069861E+01   4.2544776749E+01
  4.1203068960E+00   1.1841377119E+01   4.6019030369E+01
  7.4422415456E+00   1.1932662261E+01   4.9721678412E+01
  5.3251982769E+01   1.5337671007E+01   4.5474256944E+01
  4.1572920839E+00   1.5510840777E+01   4.9325030670E+01
  5.3259509800E+01   1.9204719854E+01   4.9396289865E+01
  5.3387340865E+01   4.1193776651E-01   2.2730313231E+01
  3.7941424707E+00   5.3266778550E+01   2.6443318917E+01
  7.8448326867E+00   5.3335558542E+01   3.0697778876E+01
  1.1956838403E+01   5.3548735114E+01   3.4087154381E+01
  1.4628009746E+01   9.7952733123E-02   3.7842981729E+01
  1.9117357532E+01   5.3323387554E+01   4.2168985314E+01
  2.3334050777E+01   1.8682815369E-01   4.6331870704E+01
  2.7035982169E+01   2.6234250488E-01   4.9925653591E+01
  5.3424410390E+01   3.3067266408E+00   2.6723077858E+01
  4.2462653615E+00   4.2662744343E+00   3.0414308461E+01
  7.5042938778E+00   3.9518327919E+00   3.4507447592E+01
  1.1250902607E+01   4.0991530060E+00   3.8434682572E+01
  1.5651453050E+01   3.4498191865E+00   4.1774668751E+01
  1.9038439021E+01   3.5881205486E+00   4.6360892580E+01
  2.3230087168E+01   3.5748873918E+00   4.9627037355E+01
  5.3261057424E+01   7.4627294377E+00   3.0309478157E+01
  3.5294654648E+00   7.3916512770E+00   3.4529312047E+01
  7.7559754414E+00   7.3684214238E+00   3.8381113865E+01
  1.1560361435E+01   7.7855602242E+00   4.1675355893E+01
  1.4961244388E+01   7.8726203836E+00   4.5811755195E+01
  1.9087769766E+01   7.5547320848E+00   5.0149882339E+01
  5.3293599813E+01   1.1056212174E+01   3.4117555596E+01
  4.0518121964E+00   1.1629675213E+01   3.8069933210E+01
  7.0472436917E+00   1.1551695853E+01   4.2056166333E+01
  1.1491102943E+01   1.0954382511E+01   4.6126697163E+01
  1.5855422824E+01   1.1661110333E+01   4.9328416027E+01
  5.3123472082E+01   1.5892684068E+01   3.8317258752E+01
  3.7206320671E+00   1.5554408199E+01   4.2421405994E+01
  7.7619124487E+00   1.5699846031E+01   4.5382753691E+01
  1.1494370470E+01   1.4801984955E+01   4.9134764795E+01
  5.3368160601E+01   1.9159343138E+01   4.2253602904E+01
  4.1438578619E+00   1.9142920521E+01   4.5646157751E+01
  7.9056789972E+00   1.8777038659E+01   4.9606170199E+01
  2.5368781495E-01   2.3012105492E+01   4.6119909215E+01
  4.2181651648E+00   2.2836040511E+01   4.9707916097E+01
  5.3366772604E+01   2.7216708964E+01   4.9615557615E+01
  5.3475135784E+01   1.0777903002E-01   1.5080024989E+01
  3.4169299689E+00   5.3515216593E+01   1.8910324535E+01
  7.5642912926E+00   5.3156190559E+01   2.2436577864E+01
  1.1444460527E+01   3.4086573162E-01   2.6973275355E+01
  1.5619570446E+01   5.3337407658E+01   3.0586513820E+01
  1.8611515625E+01   5.3276458678E+01   3.4638715697E+01
  2.3131569000E+01   5.3400867408E+01   3.8639589463E+01
  2.6755595689E+01   5.3286328052E+01   4.2334628960E+01
  3.1042031579E+01   5.3338533679E+01   4.5757028786E+01
  3.4402155070E+01   5.3082068032E+01   4.9506264660E+01
  3.1214613409E-01   3.8994569759E+00   1.8595353877E+01
  3.7424109845E+00   3.6590411383E+00   2.3510981779E+01
  8.1917240329E+00   3.8595138157E+00   2.6981503400E+01
  1.1489382509E+01   3.7473120565E+00   3.0843167881E+01
  1.5094735089E+01   4.0411912229E+00   3.4227332411E+01
  1.8871023837E+01   3.4591254944E+00   3.7883751709E+01
  2.2981745133E+01   3.6787770125E+00   4.1941467763E+01
  2.7340310277E+01   3.3833584107E+00   4.5602120587E+01
  3.0808460500E+01   3.8737527615E+00   4.9559432990E+01
  8.1537373634E-02   8.0776709678E+00   2.2406172733E+01
  3.5270977783E+00   8.1505201149E+00   2.6325059526E+01
  7.9587643247E+00   7.4122559057E+00   3.0582592803E+01
  1.1386790939E+01   7.5832761460E+00   3.4234008198E+01
  1.5557283384E+01   7.0837391207E+00   3.8313506940E+01
  1.9184823924E+01   6.9233204390E+00   4.2524541072E+01
  2.2778512019E+01   7.2631656355E+00   4.5808047050E+01
  2.7002067604E+01   7.4579786509E+00   5.0004614494E+01
  3.6367116614E-02   1.1314469013E+01   2.7009436912E+01
  3.7580813348E+00   1.1380547686E+01   3.0903190252E+01
  7.5243502511E+00   1.1226371290E+01   3.4279745907E+01
  1.1430758611E+01   1.1345425337E+01   3.8739743399E+01
  1.5564955383E+01   1.1164487851E+01   4.2423078341E+01
  1.9723805761E+01   1.1494848401E+01   4.5684452587E+01
  2.2436667138E+01   1.1225268788E+01   5.0130268479E+01
  1.8675428090E-01   1.5677097458E+01   3.0011181235E+01
  3.8885267680E+00   1.5580368478E+01   3.3864310587E+01
  7.2469519966E+00   1.5675918855E+01   3.8227210382E+01
  1.2026797880E+01   1.5415536552E+01   4.2714622284E+01
  1.5523787508E+01   1.5388753711E+01   4.5918988475E+01
  1.9586074121E+01   1.5302000232E+01   4.9420042623E+01
  5.3143447198E+01   1.9413816895E+01   3.4489783314E+01
  3.2640843059E+00   1.9241349784E+01   3.7927008247E+01
  7.9875397059E+00   1.9638158345E+01   4.1965073173E+01
  1.1823247357E+01   1.8900290595E+01   4.6455424130E+01
  1.4807016974E+01   1.9544169985E+01   5.0196774488E+01
  1.6213724308E-01   2.3463522257E+01   3.8034258104E+01
  3.9681959686E+00   2.2671940628E+01   4.2207773420E+01
  8.0730787907E+00   2.2965317714E+01   4.6173723476E+01
  1.1410794191E+01   2.3078919247E+01   4.9809291109E+01
  5.3508021134E+01   2.6529447942E+01   4.2068595296E+01
  3.2138411282E+00   2.6908420224E+01   4.5897772845E+01
  7.0755233553E+00   2.6898258640E+01   5.0033661679E+01
  5.3108004778E+01   3.0863752054E+01   4.6227590447E+01
  3.8738091628E+00   3.0701136848E+01   4.9957870009E+01
  5.3517713012E+01   3.4689252165E+01   4.9973752986E+01
  1.0363042438E-01   9.2165512050E-02   7.3945277694E+00
  3.7710909734E+00   5.3472401677E+01   1.1240230763E+01
  7.8518088925E+00   4.3406560064E-01   1.5384549030E+01
  1.1293668873E+01   5.3221771425E+01   1.9085806867E+01
  1.5357604801E+01   5.3463045342E+01   2.2965744838E+01
  1.9473279222E+01   1.0530941397E-01   2.6711536357E+01
  2.3566652755E+01   5.3387758401E+01   3.0965209324E+01
  2.6855846438E+01   5.2971876756E+01   3.4569045044E+01
  3.0167860582E+01   5.3329013588E+01   3.8287813862E+01
  3.4762044855E+01   5.3480071047E+01   4.1943938492E+01
  3.8196206552E+01   4.7544633385E-01   4.6071940015E+01
  4.2493890521E+01   5.3157088690E+01   5.0346179796E+01
  3.9588997166E-02   3.8621311505E+00   1.1364372370E+01
  4.0758661776E+00   3.4704571206E+00   1.5250038658E+01
  7.4457191387E+00   3.8764626597E+00   1.9161716377E+01
  1.1728279957E+01   4.2897936007E+00   2.2890675685E+01
  1.5173503495E+01   3.6704212274E+00   2.6923816638E+01
  1.8723198994E+01   3.7323474953E+00   3.0783825022E+01
  2.2807843677E+01   3.4521420573E+00   3.4721392163E+01
  2.6350389364E+01   3.7545735426E+00   3.8466267107E+01
  3.0568921953E+01   3.4517127136E+00   4.1894462082E+01
  3.4478364630E+01   3.8473151127E+00   4.5901054973E+01
  3.8432616506E+01   4.2361168022E+00   4.9374343244E+01
  5.3445254553E+01   7.6662675139E+00   1.5186937380E+01
  3.5453407593E+00   7.9809928877E+00   1.9307484852E+01
  7.2582260493E+00   7.8131590495E+00   2.2937972473E+01
  1.1990617660E+01   7.5692246240E+00   2.7116473873E+01
  1.5612104938E+01   7.3424451193E+00   3.0554870232E+01
  1.8826930460E+01   7.7805244867E+00   3.4308865801E+01
  2.2706738465E+01   7.5767014047E+00   3.8156418887E+01
  2.7042506542E+01   7.2087728783E+00   4.1643852072E+01
  3.0176652801E+01   7.3152349122E+00   4.5719162122E+01
  3.4528149833E+01   7.1641613940E+00   4.9735523825E+01
  8.3345477807E-02   1.1611567122E+01   1.8659751100E+01
  4.0699054430E+00   1.1723342072E+01   2.2533934766E+01
  7.4033956720E+00   1.1338967606E+01   2.6343139844E+01
  1.1712995242E+01   1.1730401410E+01   3.0736364086E+01
  1.5170725038E+01   1.1081195989E+01   3.4973061506E+01
  1.9608839446E+01   1.1389872445E+01   3.8172171423E+01
  2.2846323695E+01   1.1011839429E+01   4.1626185649E+01
  2.5983809258E+01   1.1182185205E+01   4.5852232275E+01
  3.0158634855E+01   1.1403654410E+01   4.9529274313E+01
  5.3514615115E+01   1.5659392328E+01   2.2308688358E+01
  4.0944143979E+00   1.4861491124E+01   2.6723964521E+01
  7.6638041747E+00   1.5635308081E+01   3.0771838119E+01
  1.1245343981E+01   1.5190131958E+01   3.4304812394E+01
  1.5720531002E+01   1.4654053548E+01   3.8002936033E+01
  1.9208762016E+01   1.5338500521E+01   4.2119203983E+01
  2.3083167858E+01   1.5564169871E+01   4.5820266556E+01
  2.6668026150E+01   1.5503205925E+01   4.9884256179E+01
  3.8049710821E-01   1.9124934689E+01   2.6760431020E+01
  3.8463333006E+00   1.8854309360E+01   3.0556051058E+01
  7.2304279613E+00   1.9422432673E+01   3.4423962567E+01
  1.1133811893E+01   1.9142343590E+01   3.7978607260E+01
  1.4937606571E+01   1.9455312524E+01   4.1816604616E+01
  1.9035851192E+01   1.9484924994E+01   4.6171798708E+01
  2.2808290819E+01   1.9270800980E+01   4.9842214741E+01
  2.1063305854E-01   2.3345204470E+01   3.0292377960E+01
  3.2734009075E+00   2.3010580684E+01   3.4173238112E+01
  7.5265561951E+00   2.3089598970E+01   3.7798194715E+01
  1.1758990310E+01   2.2851222144E+01   4.1800157476E+01
  1.4958306656E+01   2.3157526798E+01   4.6030017346E+01
  1.8973727299E+01   2.3231957098E+01   5.0030615938E+01
  5.3382309770E+01   2.6994283343E+01   3.4557935712E+01
  3.8764410069E+00   2.7096490875E+01   3.8110596246E+01
  7.3474678408E+00   2.6546935522E+01   4.1842891493E+01
  1.0881757221E+01   2.7162184929E+01   4.6209383614E+01
  1.5367178367E+01   2.6556581959E+01   4.9368947176E+01
  2.8261115265E-01   3.0237581995E+01   3.8206292536E+01
  4.1083025026E+00   3.1080035897E+01   4.2471195225E+01
  7.7871445630E+00   3.0849416157E+01   4.5955457949E+01
  1.1096005402E+01   3.0498153569E+01   4.9693010324E+01
  5.3229077183E+01   3.4629421267E+01   4.1714324942E+01
  4.3147899673E+00   3.4585479042E+01   4.6055839992E+01
  7.9809646003E+00   3.4329192944E+01   4.9644336640E+01
  4.0706064730E-01   3.7819665078E+01   4.5512910155E+01
  3.8428407967E+00   3.8060451940E+01   5.0077139967E+01
  2.1920685217E-01   4.1627101897E+01   4.9534751784E+01
  2.2070699378E-01   3.0170458565E-01   1.1155652024E-01
  3.8015516018E+00   5.3357985379E+01   4.2017846490E+00
  7.3253491187E+00   7.2331021539E-02   8.0144702081E+00
  1.1319837053E+01   5.3259117444E+01   1.1376921067E+01
  1.5357202475E+01   5.3444314279E+01   1.5250274417E+01
  1.9618352808E+01   1.4670845342E-01   1.8684282104E+01
  2.3300941604E+01   1.1484595271E-01   2.2773137826E+01
  2.6777382871E+01   5.3123241562E+01   2.6935023262E+01
  3.0903047002E+01   5.3335178604E+01   3.0554536650E+01
  3.3922740670E+01   5.3448684011E+01   3.4562954367E+01
  3.7969611050E+01   5.3431481230E+01   3.7834184752E+01
  4.1782972051E+01   3.5001827344E-01   4.1595772168E+01
  4.5970241655E+01   4.1181913316E-01   4.5353440648E+01
  4.8996090722E+01   8.4882361064E-02   4.9872106461E+01
  2.4643752532E-01   3.8018615972E+00   4.1296928762E+00
  4.3389993561E+00   3.8004889424E+00   7.4779545242E+00
  7.3278106739E+00   4.2563439720E+00   1.1155038660E+01
  1.1496382066E+01   3.7231756944E+00   1.5615020629E+01
  1.5084331431E+01   3.4376535491E+00   1.8689691557E+01
  1.8557502958E+01   3.9490244785E+00   2.3119905978E+01
  2.3486294652E+01   3.7157212988E+00   2.7253905122E+01
  2.6810474920E+01   3.8001568930E+00   3.0339465915E+01
  3.0683307622E+01   3.5757437093E+00   3.4424560359E+01
  3.4497531578E+01   3.9243737754E+00   3.8232568704E+01
  3.8487714887E+01   4.3003454766E+00   4.2232920339E+01
  4.2289399769E+01   3.1307348574E+00   4.6536548975E+01
  4.5873547564E+01   3.9673747007E+00   4.9816875224E+01
  6.9883972419E-02   7.9397712485E+00   7.8007817825E+00
  3.5142523530E+00   7.8878608779E+00   1.1108255248E+01
  7.9773507384E+00   7.4249039271E+00   1.5394079101E+01
  1.1502418768E+01   7.9903048094E+00   1.9026475056E+01
  1.5531146724E+01   7.6068033910E+00   2.2671127618E+01
  1.8907106824E+01   7.7326898553E+00   2.6896019590E+01
  2.2671331959E+01   7.3916173703E+00   3.0562708020E+01
  2.6579283439E+01   7.4338204010E+00   3.4234421208E+01
  3.0721837113E+01   8.0165821928E+00   3.8050427040E+01
  3.4696691743E+01   8.0399090790E+00   4.1660291183E+01
  3.8074885625E+01   7.4195481276E+00   4.5590426615E+01
  4.2394879570E+01   7.4770311614E+00   4.9549912115E+01
  8.1941466708E-02   1.1695996511E+01   1.1463653575E+01
  3.7971428980E+00   1.1082361241E+01   1.5465338270E+01
  7.7365493274E+00   1.1337345924E+01   1.9384991912E+01
  1.1533200037E+01   1.1034505552E+01   2.2811165992E+01
  1.4948550783E+01   1.1415209927E+01   2.7116138769E+01
  1.9100444211E+01   1.1605634367E+01   3.0353358348E+01
  2.3088721964E+01   1.2112075555E+01   3.4559530458E+01
  2.7387852598E+01   1.1875995854E+01   3.8457297532E+01
  3.0433346368E+01   1.1324437331E+01   4.2402533224E+01
  3.4514039822E+01   1.1278132012E+01   4.6191341286E+01
  3.8366409082E+01   1.1349067218E+01   4.9172425346E+01
  3.2694650958E-01   1.5871723381E+01   1.5159002766E+01
  4.2372398063E+00   1.5268684068E+01   1.8887463589E+01
  8.0059368572E+00   1.5526325677E+01   2.2625102815E+01
  1.1720721666E+01   1.5015312075E+01   2.6930841607E+01
  1.5371429909E+01   1.5611669260E+01   3.0091767808E+01
  1.8833782490E+01   1.5512469835E+01   3.4393885489E+01
  2.3050952596E+01   1.4931398043E+01   3.8816641014E+01
  2.6800894993E+01   1.4921928625E+01   4.2922733077E+01
  3.0895062476E+01   1.5540108065E+01   4.5909141422E+01
  3.4774341396E+01   1.5597276339E+01   4.9666972935E+01
  9.1144101271E-02   1.9516695727E+01   1.8769489776E+01
  3.9998240036E+00   1.8714507104E+01   2.3390644609E+01
  7.3862832289E+00   1.9411161384E+01   2.6883781357E+01
  1.1845803232E+01   1.9212320083E+01   3.0635371390E+01
  1.5069682365E+01   1.9143538572E+01   3.4115425081E+01
  1.8918119149E+01   1.9067610194E+01   3.8753360901E+01
  2.3146843275E+01   1.8902375518E+01   4.2533413797E+01
  2.6546455520E+01   1.9012307946E+01   4.6008327824E+01
  3.0757360016E+01   1.9256869886E+01   4.9873452070E+01
  1.0444534883E-01   2.3417634784E+01   2.2789859838E+01
  3.9000066768E+00   2.3408601969E+01   2.6929454190E+01
  7.8774678897E+00   2.2914971902E+01   3.0397020360E+01
  1.1619157408E+01   2.2877080829E+01   3.4370339416E+01
  1.5291118287E+01   2.3307736163E+01   3.7665379484E+01
  1.9174067291E+01   2.3264554535E+01   4.2141729406E+01
  2.2593091766E+01   2.2813938336E+01   4.5856601760E+01
  2.6861798515E+01   2.2906085413E+01   4.9436638748E+01
  5.3451259475E+01   2.6954880176E+01   2.7102755489E+01
  4.4014604140E+00   2.7169827284E+01   3.0309363272E+01
  7.9191742911E+00   2.7268380715E+01   3.4662984882E+01
  1.1102170133E+01   2.6213402228E+01   3.8134270253E+01
  1.4843047775E+01   2.6846099460E+01   4.2334264651E+01
  1.9146205670E+01   2.6731344946E+01   4.6397336948E+01
  2.2976170851E+01   2.6958180145E+01   4.9454927480E+01
  3.9578286134E-01   3.0520770209E+01   3.0868962586E+01
  4.2004889667E+00   3.1005603419E+01   3.4603661303E+01
  8.0956223689E+00   3.0790439978E+01   3.8125493213E+01
  1.1462806827E+01   3.0414653478E+01   4.2112006084E+01
  1.5431373598E+01   3.0995025053E+01   4.5834118359E+01
  1.9146904248E+01   3.0991690716E+01   4.9940936293E+01
  2.0395369596E-02   3.4359206028E+01   3.4285049910E+01
  4.1949950089E+00   3.4137738571E+01   3.8300619290E+01
  7.2366723999E+00   3.4926135844E+01   4.1867509204E+01
  1.1554665417E+01   3.4802227188E+01   4.6169113141E+01
  1.4737193921E+01   3.4644778284E+01   5.0169808379E+01
  1.9003985512E-01   3.8296323703E+01   3.7584950746E+01
  3.4502848793E+00   3.8756841984E+01   4.1892843805E+01
  7.7568762319E+00   3.8065991744E+01   4.6067995514E+01
  1.1861341336E+01   3.8531593398E+01   4.9688755372E+01
  9.7774616257E-02   4.2294573182E+01   4.1887770301E+01
  4.0000992689E+00   4.2262051840E+01   4.5581482126E+01
  7.5780099356E+00   4.1715302751E+01   5.0059917556E+01
  7.7626591244E-02   4.6219370068E+01   4.5244884760E+01
  3.8587862095E+00   4.6338595362E+01   4.9185495140E+01
  5.3342456503E+01   4.9854048772E+01   5.0088642050E+01
  7.7165409862E+00   5.2963065249E+01   2.2858775799E-01
  1.1287117128E+01   5.3158406749E+01   3.8909550505E+00
  1.5747757138E+01   5.3347351504E+01   7.5083169964E+00
  1.9752226604E+01   5.2972336346E+01   1.1449533143E+01
  2.2826279257E+01   5.3353316123E+01   1.5431174571E+01
  2.6820879698E+01   1.4340961909E-01   1.8753540211E+01
  3.0373499431E+01   5.2889811513E+01   2.3150224404E+01
  3.4376208487E+01   5.3250624343E+01   2.6849725263E+01
  3.8820859268E+01   2.8984734370E-01   3.0625069133E+01
  4.1774541482E+01   1.9603879829E-01   3.4703128441E+01
  4.5779890022E+01   2.8240795796E-01   3.7887900794E+01
  5.0111379728E+01   4.0066512682E-01   4.2383704366E+01
  3.8475228739E+00   3.1676332137E+00   1.5371568639E-01
  7.9060450429E+00   4.0036237548E+00   3.8997099219E+00
  1.1354688482E+01   3.6229751647E+00   7.3529074857E+00
  1.4958636707E+01   3.9820088269E+00   1.1485846602E+01
  1.8934122434E+01   4.1461565639E+00   1.5218592301E+01
  2.2673519791E+01   4.1095659810E+00   1.8979607884E+01
  2.6395850242E+01   3.8158676197E+00   2.2651276309E+01
  3.0784838620E+01   3.9822584351E+00   2.6838609575E+01
  3.4653032363E+01   3.5647997816E+00   3.0337609901E+01
  3.8390101076E+01   4.0232340089E+00   3.4488786746E+01
  4.1996915944E+01   4.0004104563E+00   3.8375167181E+01
  4.5867192240E+01   4.2415961135E+00   4.2074360098E+01
  4.9516028259E+01   3.6167151712E+00   4.6346875354E+01
  4.2892588781E-02   7.9409879868E+00   5.9789014048E-02
  3.9281134993E+00   7.4891687515E+00   3.9738286917E+00
  7.5226151533E+00   8.0066784682E+00   7.9733804729E+00
  1.1433350869E+01   7.2030185880E+00   1.1641016786E+01
  1.5367291357E+01   7.6590754168E+00   1.5108297680E+01
  1.9332747358E+01   7.5120657371E+00   1.8961166772E+01
  2.3104118899E+01   7.2070996939E+00   2.3440908522E+01
  2.6972289912E+01   7.7960354637E+00   2.7280567700E+01
  3.0955331571E+01   7.9157679020E+00   3.0569609416E+01
  3.4818212102E+01   7.2318320014E+00   3.4450994959E+01
  3.8486367997E+01   8.2191837336E+00   3.8009551173E+01
  4.1882389548E+01   7.5774332426E+00   4.1886138816E+01
  4.6112502741E+01   7.8316909607E+00   4.5932408262E+01
  4.9970024034E+01   7.6081967260E+00   4.9767011934E+01
  1.4571214978E-01   1.1603121391E+01   3.4447755966E+00
  4.2102800600E+00   1.1833877082E+01   7.0338351804E+00
  7.2893840234E+00   1.1124353517E+01   1.1863896334E+01
  1.1758765883E+01   1.1525547666E+01   1.5685917964E+01
  1.5296944871E+01   1.1755134001E+01   1.9059650029E+01
  1.8945271219E+01   1.1099698101E+01   2.2666429383E+01
  2.2766368960E+01   1.1325393289E+01   2.6641593982E+01
  2.6993317640E+01   1.1538713991E+01   3.0987022437E+01
  3.0707304276E+01   1.1458284542E+01   3.4716755462E+01
  3.4767805625E+01   1.1763294130E+01   3.8136846295E+01
  3.8045809963E+01   1.1321300989E+01   4.1811588785E+01
  4.2074684864E+01   1.1400212008E+01   4.5972878226E+01
  4.6137475768E+01   1.1991035676E+01   4.9186292423E+01
  1.0161851631E-01   1.5664101902E+01   7.1336928659E+00
  3.5832687579E+00   1.5286253109E+01   1.1086031012E+01
  8.5174027561E+00   1.5874548732E+01   1.5712238924E+01
  1.1667949783E+01   1.5515295663E+01   1.9430081140E+01
  1.5500287549E+01   1.5824901465E+01   2.2881409943E+01
  1.9064306800E+01   1.5253816494E+01   2.6970371336E+01
  2.3593639634E+01   1.5154233757E+01   3.0536818698E+01
  2.6728611691E+01   1.5222136513E+01   3.4530016158E+01
  3.0791065967E+01   1.5821659469E+01   3.7772488322E+01
  3.4067656804E+01   1.5292482417E+01   4.2213994168E+01
  3.8204385953E+01   1.5452779383E+01   4.5698696192E+01
  4.1831576189E+01   1.5229312507E+01   4.9776041919E+01
  5.3425087729E+01   1.9323280061E+01   1.1694962128E+01
  4.2546382877E+00   1.8931148722E+01   1.4891889754E+01
  6.8816999538E+00   1.9394812864E+01   1.9463501659E+01
  1.1489910264E+01   1.9516762479E+01   2.3304274107E+01
  1.5616100186E+01   1.9491502036E+01   2.6696580082E+01
  1.9562438432E+01   1.9401433680E+01   3.0814599672E+01
  2.2913069016E+01   1.8924379011E+01   3.4917191610E+01
  2.6399274067E+01   1.9348943022E+01   3.8271335050E+01
  3.0478477241E+01   1.9131708837E+01   4.2123784375E+01
  3.4193876260E+01   1.9249329691E+01   4.5551582555E+01
  3.8724526475E+01   1.9303895025E+01   4.9975485246E+01
  5.3274761961E+01   2.2960597698E+01   1.5404536817E+01
  3.7348629676E+00   2.2791928599E+01   1.8598402591E+01
  7.4534706762E+00   2.2749449427E+01   2.3499423503E+01
  1.1702190225E+01   2.2382772095E+01   2.7177733269E+01
  1.5154936623E+01   2.2947754850E+01   3.0413219594E+01
  1.8637839313E+01   2.2974303203E+01   3.3939331122E+01
  2.2765275663E+01   2.3154030981E+01   3.7877414435E+01
  2.6657748756E+01   2.2580869989E+01   4.2070401588E+01
  3.1226236952E+01   2.3114533714E+01   4.5425920429E+01
  3.4343254393E+01   2.2934746809E+01   5.0060762772E+01
  5.3215369454E+01   2.6628790559E+01   1.9352757835E+01
  3.9459132949E+00   2.6542358970E+01   2.3242484811E+01
  8.0527582711E+00   2.6633380761E+01   2.7061615584E+01
  1.1634265699E+01   2.6296855703E+01   3.0637300297E+01
  1.5524368982E+01   2.6920344618E+01   3.4293235950E+01
  1.9047383557E+01   2.6511926913E+01   3.8335404533E+01
  2.3148717047E+01   2.6842221711E+01   4.2356530665E+01
  2.7000304826E+01   2.6711357078E+01   4.5957630771E+01
  3.0829853848E+01   2.6531170114E+01   4.9651320449E+01
  5.3077021649E+01   3.0833723143E+01   2.2948958154E+01
  4.0063802630E+00   3.0704689016E+01   2.6770812132E+01
  7.6761558186E+00   3.0860487147E+01   3.0612088341E+01
  1.2040945391E+01   3.0560224509E+01   3.4240382261E+01
  1.4974413037E+01   3.0782874832E+01   3.7956080848E+01
  1.8958089144E+01   3.0739294652E+01   4.1965547052E+01
  2.2649332874E+01   3.1053354692E+01   4.5817675313E+01
  2.6745078031E+01   3.0747372313E+01   4.9782153004E+01
  5.3044455623E+01   3.4580852621E+01   2.6841879611E+01
  3.8639790878E+00   3.4358788406E+01   3.0246267845E+01
  8.1541389363E+00   3.4504959066E+01   3.4844900443E+01
  1.1628069376E+01   3.4617320642E+01   3.8596537016E+01
  1.5363292879E+01   3.4503133899E+01   4.2025536657E+01
  1.9114651830E+01   3.4936027653E+01   4.5788384517E+01
  2.3317313251E+01   3.4186331334E+01   4.9678175664E+01
  5.3516844494E+01   3.8606201705E+01   3.0578845681E+01
  4.0149165705E+00   3.8187500822E+01   3.4454685548E+01
  7.7380955241E+00   3.8492485771E+01   3.8408273228E+01
  1.1145306427E+01   3.8677206851E+01   4.2323162383E+01
  1.4779560267E+01   3.8512329412E+01   4.5765790594E+01
  1.8858945760E+01   3.8726162736E+01   4.9510557139E+01
  5.2986604525E+01   4.1844629404E+01   3.4159732418E+01
  3.5831246628E+00   4.2222282387E+01   3.8370120333E+01
  7.6581838260E+00   4.2215270773E+01   4.2086362247E+01
  1.0951021552E+01   4.2327784346E+01   4.6106800126E+01
  1.5617590143E+01   4.2027057027E+01   4.9739211523E+01
  5.3458047944E+01   4.6267246778E+01   3.8012558705E+01
  4.0620350367E+00   4.5939360642E+01   4.1684844261E+01
  7.3820964622E+00   4.5916043681E+01   4.5626479762E+01
  1.1562637575E+01   4.6094193215E+01   4.9827333244E+01
  5.3450833366E+01   5.0075870123E+01   4.1958143963E+01
  3.7204801263E+00   5.0178020029E+01   4.5996125994E+01
  7.7918974720E+00   4.9467476765E+01   4.9662547179E+01
  1.5065738372E+01   4.7676058784E-02   5.3439030974E+01
  1.9742673583E+01   5.3131768766E+01   3.7893789591E+00
  2.2745033246E+01   5.3353621847E+01   7.5746133241E+00
  2.7004801667E+01   1.3386455946E-01   1.1735334846E+01
  3.0423347439E+01   2.2206253725E-01   1.5690043551E+01
  3.4343287393E+01   5.3415151855E+01   1.9245999139E+01
  3.7885937387E+01   5.3244032326E+01   2.3024788664E+01
  4.2332924135E+01   5.3541858382E+01   2.6364435004E+01
  4.5468559341E+01   5.3484613040E+01   3.0638594483E+01
  5.0491372310E+01   8.0049374762E-02   3.4383043584E+01
  1.1746683631E+01   3.9942711020E+00   5.3049347531E+01
  1.5410156454E+01   3.3602696027E+00   3.6450056825E+00
  1.9479794319E+01   3.7262739018E+00   7.2180194591E+00
  2.2414154729E+01   3.7355933633E+00   1.2052869187E+01
  2.6680276010E+01   3.9365867842E+00   1.5660796900E+01
  3.0256898649E+01   4.2230369604E+00   1.8657222184E+01
  3.4547183915E+01   3.2244867825E+00   2.3711951146E+01
  3.8424716636E+01   3.5988190204E+00   2.6962076246E+01
  4.2375581076E+01   3.4313271870E+00   3.1052956134E+01
  4.5582565228E+01   3.8316701639E+00   3.4440171925E+01
  4.9750123430E+01   4.0994762134E+00   3.8493244848E+01
  8.0973589413E+00   7.2271122746E+00   5.3382852829E+01
  1.1211236554E+01   8.0516986115E+00   3.4794826520E+00
  1.4890445405E+01   7.6182457414E+00   7.7723136014E+00
  1.8637558557E+01   7.1632892078E+00   1.0738571034E+01
  2.2763981030E+01   8.0210521861E+00   1.5053985839E+01
  2.6814760918E+01   7.6385606380E+00   1.9378450965E+01
  3.0238863331E+01   7.7477579295E+00   2.3209892262E+01
  3.4462874771E+01   7.6254820023E+00   2.7107530317E+01
  3.8432052815E+01   7.4149892196E+00   3.0740170864E+01
  4.2074172912E+01   7.5689931123E+00   3.4605005136E+01
  4.6346795933E+01   7.6522591474E+00   3.8275842422E+01
  4.9425935365E+01   7.8986742239E+00   4.1919880000E+01
  3.8270718942E+00   1.1506779750E+01   5.3245987355E+01
  7.4708851989E+00   1.1490073167E+01   3.7652096187E+00
  1.1368668565E+01   1.1448511957E+01   7.8531451322E+00
  1.5071293028E+01   1.1572212654E+01   1.1322457360E+01
  1.8970746451E+01   1.1644234641E+01   1.5658950834E+01
  2.2929808722E+01   1.1345738881E+01   1.8671771204E+01
  2.7052874067E+01   1.1235109242E+01   2.2797167612E+01
  3.0253754622E+01   1.2228401927E+01   2.6710836239E+01
  3.4429118363E+01   1.1763663263E+01   3.0639228747E+01
  3.8666788600E+01   1.1378424029E+01   3.3688362103E+01
  4.1995129301E+01   1.1847433936E+01   3.8013113139E+01
  4.6098625009E+01   1.1868521363E+01   4.1656825233E+01
  4.9604429643E+01   1.1479217968E+01   4.5697116280E+01
  2.0395622346E-01   1.5378600936E+01   5.3338692820E+01
  4.1280933747E+00   1.5766132803E+01   4.0092856811E+00
  7.7905582490E+00   1.5133705180E+01   7.8675140325E+00
  1.1313822116E+01   1.4867519209E+01   1.1789175127E+01
  1.5875003508E+01   1.5070517497E+01   1.4921423215E+01
  1.8974493911E+01   1.5512478120E+01   1.8885033375E+01
  2.2379058565E+01   1.4819846239E+01   2.2722794062E+01
  2.6498271578E+01   1.5014111704E+01   2.6602100688E+01
  3.0159871388E+01   1.5436920279E+01   3.1153940716E+01
  3.4492234550E+01   1.5291283436E+01   3.4539023151E+01
  3.8800817757E+01   1.5931549682E+01   3.8167994921E+01
  4.1812294515E+01   1.4852179256E+01   4.2049700736E+01
  4.5861512069E+01   1.5239913714E+01   4.5780835636E+01
  4.9400497399E+01   1.5538201718E+01   5.0011468125E+01
  3.0800601788E-01   1.9152942386E+01   3.4931383841E+00
  4.4817642955E+00   1.8837193448E+01   7.5544232814E+00
  7.9842679632E+00   1.9212464388E+01   1.1827531731E+01
  1.1823333903E+01   1.9565575590E+01   1.5125856185E+01
  1.5274176280E+01   1.9281767007E+01   1.9295247644E+01
  1.8979615406E+01   1.9315448632E+01   2.2724325521E+01
  2.2860893644E+01   1.9104201975E+01   2.7085448918E+01
  2.6734295964E+01   1.9040362717E+01   3.0852459357E+01
  3.0108226154E+01   1.8971146394E+01   3.4337902657E+01
  3.4628773432E+01   1.9225089470E+01   3.7806953938E+01
  3.8069137552E+01   1.9071100614E+01   4.2226914846E+01
  4.2091437265E+01   1.9307127623E+01   4.5772083563E+01
  4.5585328185E+01   1.9189828886E+01   4.9641710723E+01
  1.5412825902E-01   2.3289401346E+01   8.0545291412E+00
  3.7387670377E+00   2.2821950537E+01   1.1549213061E+01
  7.7100449106E+00   2.2910720847E+01   1.5559484479E+01
  1.1219662054E+01   2.2940077509E+01   1.9197885657E+01
  1.4987551116E+01   2.2996446214E+01   2.2662075386E+01
  1.8976191875E+01   2.3103300787E+01   2.7048077798E+01
  2.3086441767E+01   2.2902542941E+01   3.0804695452E+01
  2.7173393432E+01   2.3126635567E+01   3.4955137465E+01
  3.0415334607E+01   2.3386537117E+01   3.8425764662E+01
  3.4305607377E+01   2.2926214272E+01   4.1864201248E+01
  3.8186660776E+01   2.2750442290E+01   4.5534512875E+01
  4.2294626359E+01   2.3241352604E+01   4.9554072865E+01
  3.3483373957E-01   2.6403417126E+01   1.1981279659E+01
  3.7394507353E+00   2.6632360190E+01   1.5335204857E+01
  7.8279984209E+00   2.6386595689E+01   1.9306745453E+01
  1.1887018881E+01   2.7204453134E+01   2.3298966779E+01
  1.5406439053E+01   2.6340265573E+01   2.6702643355E+01