---------------------------------------
Begin Slurm Prolog: Dec-20-2022 23:12:39
Job ID:    299877
User ID:   bzhang376
Account:   hive-phanish6
Job name:  AbiAuNo666
Partition: hive
---------------------------------------
  ABINIT 9.6.2
  
 DeprecationWarning: 

     The files file has been deprecated in Abinit9 and will be removed in Abinit10.
     Use the syntax `abinit t01.abi` where t01.abi is an input with pseudopotentials e.g.

            pseudos = "al.psp8, as.psp8"


  Give name for formatted input file: 
Au.in
  Give name for formatted output file:
Au.out
  Give root name for generic input files:
abi
  Give root name for generic output files:
abo
  Give root name for generic temporary files:
tmp

.Version 9.6.2 of ABINIT 
.(MPI version, prepared for a x86_64_linux_gnu10.3 computer) 

.Copyright (C) 1998-2021 ABINIT group . 
 ABINIT comes with ABSOLUTELY NO WARRANTY.
 It is free software, and you are welcome to redistribute it
 under certain conditions (GNU General Public License,
 see ~abinit/COPYING or http://www.gnu.org/copyleft/gpl.txt).

 ABINIT is a project of the Universite Catholique de Louvain,
 Corning Inc. and other collaborators, see ~abinit/doc/developers/contributors.txt .
 Please read https://docs.abinit.org/theory/acknowledgments for suggested
 acknowledgments of the ABINIT effort.
 For more information, see https://www.abinit.org .

.Starting date : Tue 20 Dec 2022.
- ( at 23h42 )
  

 ++++++++++++++++++++++++++++++++++++++++++++++++++++++++++++++++++++++++++++++

 === Build Information === 
  Version       : 9.6.2
  Build target  : x86_64_linux_gnu10.3
  Build date    : 20221111

 === Compiler Suite === 
  C compiler       : gnu10.3
  C++ compiler     : gnu10.3
  Fortran compiler : gnu10.3
  CFLAGS           : -g -O2 -mtune=native -march=native
  CXXFLAGS         : -g -O2 -mtune=native -march=native
  FCFLAGS          : -g -ffree-line-length-none -fallow-argument-mismatch     -I/usr/loc ...
  FC_LDFLAGS       : 

 === Optimizations === 
  Debug level        : basic
  Optimization level : standard
  Architecture       : intel_xeon

 === Multicore === 
  Parallel build : yes
  Parallel I/O   : 
  openMP support : no
  GPU support    : 

 === Connectors / Fallbacks === 
  LINALG flavor  : openblas
  FFT flavor     : fftw3
  HDF5           : yes
  NetCDF         : yes
  NetCDF Fortran : yes
  LibXC          : yes
  Wannier90      : no

 === Experimental features === 
  Exports             : 
  GW double-precision : 

 ++++++++++++++++++++++++++++++++++++++++++++++++++++++++++++++++++++++++++++++


 ++++++++++++++++++++++++++++++++++++++++++++++++++++++++++++++++++++++++++++++
 Default optimizations:
   -O2 -mtune=native -march=native


 Optimizations for 43_ptgroups:
   -O0


 ++++++++++++++++++++++++++++++++++++++++++++++++++++++++++++++++++++++++++++++


 ++++++++++++++++++++++++++++++++++++++++++++++++++++++++++++++++++++++++++++++
 CPP options activated during the build:

                    CC_GNU                   CXX_GNU                    FC_GNU
 
              HAVE_ATOMPAW HAVE_FC_ALLOCATABLE_DT...             HAVE_FC_ASYNC
 
         HAVE_FC_BACKTRACE  HAVE_FC_COMMAND_ARGUMENT      HAVE_FC_COMMAND_LINE
 
        HAVE_FC_CONTIGUOUS           HAVE_FC_CPUTIME              HAVE_FC_EXIT
 
             HAVE_FC_FLUSH             HAVE_FC_GAMMA            HAVE_FC_GETENV
 
   HAVE_FC_IEEE_ARITHMETIC   HAVE_FC_IEEE_EXCEPTIONS          HAVE_FC_INT_QUAD
 
             HAVE_FC_IOMSG     HAVE_FC_ISO_C_BINDING  HAVE_FC_ISO_FORTRAN_2008
 
        HAVE_FC_LONG_LINES        HAVE_FC_MOVE_ALLOC  HAVE_FC_ON_THE_FLY_SHAPE
 
           HAVE_FC_PRIVATE         HAVE_FC_PROTECTED           HAVE_FC_SHIFTLR
 
         HAVE_FC_STREAM_IO            HAVE_FC_SYSTEM                HAVE_FFTW3
 
          HAVE_FORTRAN2003                 HAVE_HDF5        HAVE_LIBPAW_ABINIT
 
      HAVE_LIBTETRA_ABINIT                HAVE_LIBXC         HAVE_LINALG_AXPBY
 
        HAVE_LINALG_GEMM3M                  HAVE_MPI                 HAVE_MPI2
 
       HAVE_MPI_IALLGATHER       HAVE_MPI_IALLREDUCE        HAVE_MPI_IALLTOALL
 
       HAVE_MPI_IALLTOALLV           HAVE_MPI_IBCAST         HAVE_MPI_IGATHERV
 
        HAVE_MPI_INTEGER16               HAVE_MPI_IO HAVE_MPI_TYPE_CREATE_S...
 
               HAVE_NETCDF       HAVE_NETCDF_FORTRAN             HAVE_OS_LINUX
 
         HAVE_TIMER_ABINIT                                                      
 ++++++++++++++++++++++++++++++++++++++++++++++++++++++++++++++++++++++++++++++

- input  file    -> Au.in
- output file    -> Au.out
- root for input  files -> abi
- root for output files -> abo

-instrng: 65 lines of input have been read from file Au.in


 Please give name of formatted atomic psp file (and finish with a newline character)
 For atom type 1, psp file is Au_noFR.psp8
  read the values zionpsp= 19.0 , pspcod=   8 , lmax=   3

 inpspheads: deduce mpsang = 4, n1xccc = 2501.

======================================================= 
 invars1m : enter jdtset= 0

 symlatt: the Bravais lattice is cP (primitive cubic)
  xred   is defined in input file
 ingeo: takes atomic coordinates from input array xred

 symlatt: the Bravais lattice is cP (primitive cubic)

 symlatt: the Bravais lattice is cP (primitive cubic)

--- !COMMENT
src_file: m_symfind.F90
src_line: 1020
message: |
    The Bravais lattice determined only from the primitive
    vectors, bravais(1)=  7, is more symmetric
    than the real one, iholohedry=  1, obtained by taking into
    account the atomic positions. Start deforming the primitive vector set.
...


 symlatt: the Bravais lattice is mC (one-face-centered monoclinic)

--- !COMMENT
src_file: m_symfind.F90
src_line: 1029
message: |
    The Bravais lattice determined from modified primitive
    vectors, bravais(1)=  2, has a lower symmetry than before,
    but is still more symmetric than the real one, iholohedry=  1
    obtained by taking into account the atomic positions.
...


 symlatt: the Bravais lattice is aP (primitive triclinic)
 symspgr: spgroup=   1  P1   (=C1^1)
 getmpw sequential formula gave: 30752

 ====================================================================================================
 Searching for all possible proc distributions for this input with #CPUs<=12:

 ~~~~~~~~~~~~~~~~~~~~~~~~~~~~~~~~~~~~~~~~~~~~~~~~~~~~~~~~~~~~~~~~~~~~~~~~~~~~~
 |       np_spkpt|       npfft|      npband|      bandpp|  #MPI(proc)|    WEIGHT|
 |    1<<   12|    1<<   12|    1<<   12|    1<<   50|    1<<   12|  <=    12|
 ~~~~~~~~~~~~~~~~~~~~~~~~~~~~~~~~~~~~~~~~~~~~~~~~~~~~~~~~~~~~~~~~~~~~~~~~~~~~~
 |          12|           1|           1|           1|          12|    11.616|
 |          11|           1|           1|           1|          11|    10.621|
 |           6|           1|           2|           1|          12|    10.251|
 |           6|           2|           1|          50|          12|    10.144|
 |           6|           2|           1|          10|          12|    10.083|
 |           6|           2|           1|           2|          12|     9.777|
 |          10|           1|           1|           1|          10|     9.605|
 |           6|           2|           1|           1|          12|     9.404|
 |           9|           1|           1|           1|           9|     8.730|
 |           2|           6|           1|          50|          12|     8.477|
 ~~~~~~~~~~~~~~~~~~~~~~~~~~~~~~~~~~~~~~~~~~~~~~~~~~~~~~~~~~~~~~~~~~~~~~~~~~~~~
 Only the best possible choices for nproc are printed...

 >>> Possible (best) choices for the number of bands (nband) are:
     with: np_spkpt=12 npfft=1
     nband=    49 using     12 CPUs =    12 MPI x  1 threads (npband=    1)
     nband=    51 using     12 CPUs =    12 MPI x  1 threads (npband=    1)
     nband=    50 using     12 CPUs =    12 MPI x  1 threads (npband=    1)
 >>> The present nband value (    50) seems to be the best choice!
 ====================================================================================================


 For input ecut=  1.200000E+02 best grid ngfft=      80      80      80
       max ecut=  1.270725E+02

 ==== FFT mesh ====
  FFT mesh divisions ........................    80   80   80
  Augmented FFT divisions ...................    81   81   80
  FFT algorithm .............................   312
  FFT cache size ............................    16
 getmpw: optimal value of mpw= 30839

 Symmetries : space group P1 (#  1); Bravais aP (primitive triclinic)

 getdim_nloc : deduce lmnmax  =  48, lnmax  =  12,
                      lmnmaxso=  48, lnmaxso=  12.
memory: analysis of memory needs
================================================================================
 Values of the parameters that define the memory need of the present run
     intxc =       0    ionmov =       0      iscf =       7    lmnmax =      12
     lnmax =      12     mgfft =      80  mpssoang =       4    mqgrid =    3888
     natom =       4  nloc_mem =       1    nspden =       1   nspinor =       1
    nsppol =       1      nsym =       1    n1xccc =    2501    ntypat =       1
    occopt =       3   xclevel =       2
-    mband =          50        mffmem =           1         mkmem =          42
       mpw =       30839          nfft =      512000          nkpt =         504
================================================================================
P This job should need less than                    1164.947 Mbytes of memory.
  Rough estimation (10% accuracy) of disk space for files :
_ WF disk file :  11858.260 Mbytes ; DEN or POT disk file :      3.908 Mbytes.
================================================================================

 Biggest array : cg(disk), with    988.1902 MBytes.
 memana : allocated an array of    988.190 Mbytes, for testing purposes.
 memana: allocated    1164.947Mbytes, for testing purposes. 
 The job will continue.
--------------------------------------------------------------------------------
------------- Echo of variables that govern the present computation ------------
--------------------------------------------------------------------------------
-
- outvars: echo of selected default values                                      
-   iomode0 =  0 , fftalg0 =312 , wfoptalg0 =  0
-
- outvars: echo of global parameters not present in the input file              
-  max_nthreads =    0
-
 -outvars: echo values of preprocessed input variables --------
 
 These variables are accessible in NetCDF format (abo_OUT.nc)

            acell      1.0000000000E+00  1.0000000000E+00  1.0000000000E+00 Bohr
              amu      1.96966540E+02
        autoparal           1
           diemac      1.00000000E+00
           diemix      3.00000000E-01
             ecut      1.20000000E+02 Hartree
           ecutsm      5.00000000E-01 Hartree
-          fftalg         312
           istwfk        2    0    0    0    0    3    0    0    0    0
                         0    0    0    0    0    0    0    0    0    0
                         0    0    0    0    0    0    0    0    0    0
                         0    0    0    0    0    0    0    0    0    0
                         0    0    0    0    0    0    6    0    0    0
                       outvar_i_n : Printing only first  50 k-points.
              ixc          11
              kpt      0.00000000E+00  0.00000000E+00  0.00000000E+00
                       1.00000000E-01  0.00000000E+00  0.00000000E+00
                       2.00000000E-01  0.00000000E+00  0.00000000E+00
                       3.00000000E-01  0.00000000E+00  0.00000000E+00
                       4.00000000E-01  0.00000000E+00  0.00000000E+00
                       5.00000000E-01  0.00000000E+00  0.00000000E+00
                       0.00000000E+00  1.00000000E-01  0.00000000E+00
                       1.00000000E-01  1.00000000E-01  0.00000000E+00
                       2.00000000E-01  1.00000000E-01  0.00000000E+00
                       3.00000000E-01  1.00000000E-01  0.00000000E+00
                       4.00000000E-01  1.00000000E-01  0.00000000E+00
                       5.00000000E-01  1.00000000E-01  0.00000000E+00
                      -4.00000000E-01  1.00000000E-01  0.00000000E+00
                      -3.00000000E-01  1.00000000E-01  0.00000000E+00
                      -2.00000000E-01  1.00000000E-01  0.00000000E+00
                      -1.00000000E-01  1.00000000E-01  0.00000000E+00
                       0.00000000E+00  2.00000000E-01  0.00000000E+00
                       1.00000000E-01  2.00000000E-01  0.00000000E+00
                       2.00000000E-01  2.00000000E-01  0.00000000E+00
                       3.00000000E-01  2.00000000E-01  0.00000000E+00
                       4.00000000E-01  2.00000000E-01  0.00000000E+00
                       5.00000000E-01  2.00000000E-01  0.00000000E+00
                      -4.00000000E-01  2.00000000E-01  0.00000000E+00
                      -3.00000000E-01  2.00000000E-01  0.00000000E+00
                      -2.00000000E-01  2.00000000E-01  0.00000000E+00
                      -1.00000000E-01  2.00000000E-01  0.00000000E+00
                       0.00000000E+00  3.00000000E-01  0.00000000E+00
                       1.00000000E-01  3.00000000E-01  0.00000000E+00
                       2.00000000E-01  3.00000000E-01  0.00000000E+00
                       3.00000000E-01  3.00000000E-01  0.00000000E+00
                       4.00000000E-01  3.00000000E-01  0.00000000E+00
                       5.00000000E-01  3.00000000E-01  0.00000000E+00
                      -4.00000000E-01  3.00000000E-01  0.00000000E+00
                      -3.00000000E-01  3.00000000E-01  0.00000000E+00
                      -2.00000000E-01  3.00000000E-01  0.00000000E+00
                      -1.00000000E-01  3.00000000E-01  0.00000000E+00
                       0.00000000E+00  4.00000000E-01  0.00000000E+00
                       1.00000000E-01  4.00000000E-01  0.00000000E+00
                       2.00000000E-01  4.00000000E-01  0.00000000E+00
                       3.00000000E-01  4.00000000E-01  0.00000000E+00
                       4.00000000E-01  4.00000000E-01  0.00000000E+00
                       5.00000000E-01  4.00000000E-01  0.00000000E+00
                      -4.00000000E-01  4.00000000E-01  0.00000000E+00
                      -3.00000000E-01  4.00000000E-01  0.00000000E+00
                      -2.00000000E-01  4.00000000E-01  0.00000000E+00
                      -1.00000000E-01  4.00000000E-01  0.00000000E+00
                       0.00000000E+00  5.00000000E-01  0.00000000E+00
                       1.00000000E-01  5.00000000E-01  0.00000000E+00
                       2.00000000E-01  5.00000000E-01  0.00000000E+00
                       3.00000000E-01  5.00000000E-01  0.00000000E+00
                       outvar_i_n : Printing only first  50 k-points.
         kptrlatt       10    0    0      0   10    0      0    0   10
          kptrlen      7.88259134E+01
P           mkmem          42
            natom           4
            nband          50
            ngfft          80      80      80
             nkpt         504
-        np_spkpt          12
            nstep          60
             nsym           1
           ntypat           1
              occ      2.000000  2.000000  2.000000  2.000000  2.000000  2.000000
                       2.000000  2.000000  2.000000  2.000000  2.000000  2.000000
                       2.000000  2.000000  2.000000  2.000000  2.000000  2.000000
                       2.000000  2.000000  2.000000  2.000000  2.000000  2.000000
                       2.000000  2.000000  2.000000  2.000000  2.000000  2.000000
                       2.000000  2.000000  2.000000  2.000000  2.000000  2.000000
                       2.000000  2.000000  0.000000  0.000000  0.000000  0.000000
                       0.000000  0.000000  0.000000  0.000000  0.000000  0.000000
                       0.000000  0.000000
                       2.000000  2.000000  2.000000  2.000000  2.000000  2.000000
                       2.000000  2.000000  2.000000  2.000000  2.000000  2.000000
                       2.000000  2.000000  2.000000  2.000000  2.000000  2.000000
                       2.000000  2.000000  2.000000  2.000000  2.000000  2.000000
                       2.000000  2.000000  2.000000  2.000000  2.000000  2.000000
                       2.000000  2.000000  2.000000  2.000000  2.000000  2.000000
                       2.000000  2.000000  0.000000  0.000000  0.000000  0.000000
                       0.000000  0.000000  0.000000  0.000000  0.000000  0.000000
                       0.000000  0.000000
                       2.000000  2.000000  2.000000  2.000000  2.000000  2.000000
                       2.000000  2.000000  2.000000  2.000000  2.000000  2.000000
                       2.000000  2.000000  2.000000  2.000000  2.000000  2.000000
                       2.000000  2.000000  2.000000  2.000000  2.000000  2.000000
                       2.000000  2.000000  2.000000  2.000000  2.000000  2.000000
                       2.000000  2.000000  2.000000  2.000000  2.000000  2.000000
                       2.000000  2.000000  0.000000  0.000000  0.000000  0.000000
                       0.000000  0.000000  0.000000  0.000000  0.000000  0.000000
                       0.000000  0.000000
                       2.000000  2.000000  2.000000  2.000000  2.000000  2.000000
                       2.000000  2.000000  2.000000  2.000000  2.000000  2.000000
                       2.000000  2.000000  2.000000  2.000000  2.000000  2.000000
                       2.000000  2.000000  2.000000  2.000000  2.000000  2.000000
                       2.000000  2.000000  2.000000  2.000000  2.000000  2.000000
                       2.000000  2.000000  2.000000  2.000000  2.000000  2.000000
                       2.000000  2.000000  0.000000  0.000000  0.000000  0.000000
                       0.000000  0.000000  0.000000  0.000000  0.000000  0.000000
                       0.000000  0.000000
                       2.000000  2.000000  2.000000  2.000000  2.000000  2.000000
                       2.000000  2.000000  2.000000  2.000000  2.000000  2.000000
                       2.000000  2.000000  2.000000  2.000000  2.000000  2.000000
                       2.000000  2.000000  2.000000  2.000000  2.000000  2.000000
                       2.000000  2.000000  2.000000  2.000000  2.000000  2.000000
                       2.000000  2.000000  2.000000  2.000000  2.000000  2.000000
                       2.000000  2.000000  0.000000  0.000000  0.000000  0.000000
                       0.000000  0.000000  0.000000  0.000000  0.000000  0.000000
                       0.000000  0.000000
                       2.000000  2.000000  2.000000  2.000000  2.000000  2.000000
                       2.000000  2.000000  2.000000  2.000000  2.000000  2.000000
                       2.000000  2.000000  2.000000  2.000000  2.000000  2.000000
                       2.000000  2.000000  2.000000  2.000000  2.000000  2.000000
                       2.000000  2.000000  2.000000  2.000000  2.000000  2.000000
                       2.000000  2.000000  2.000000  2.000000  2.000000  2.000000
                       2.000000  2.000000  0.000000  0.000000  0.000000  0.000000
                       0.000000  0.000000  0.000000  0.000000  0.000000  0.000000
                       0.000000  0.000000
                       2.000000  2.000000  2.000000  2.000000  2.000000  2.000000
                       2.000000  2.000000  2.000000  2.000000  2.000000  2.000000
                       2.000000  2.000000  2.000000  2.000000  2.000000  2.000000
                       2.000000  2.000000  2.000000  2.000000  2.000000  2.000000
                       2.000000  2.000000  2.000000  2.000000  2.000000  2.000000
                       2.000000  2.000000  2.000000  2.000000  2.000000  2.000000
                       2.000000  2.000000  0.000000  0.000000  0.000000  0.000000
                       0.000000  0.000000  0.000000  0.000000  0.000000  0.000000
                       0.000000  0.000000
                       2.000000  2.000000  2.000000  2.000000  2.000000  2.000000
                       2.000000  2.000000  2.000000  2.000000  2.000000  2.000000
                       2.000000  2.000000  2.000000  2.000000  2.000000  2.000000
                       2.000000  2.000000  2.000000  2.000000  2.000000  2.000000
                       2.000000  2.000000  2.000000  2.000000  2.000000  2.000000
                       2.000000  2.000000  2.000000  2.000000  2.000000  2.000000
                       2.000000  2.000000  0.000000  0.000000  0.000000  0.000000
                       0.000000  0.000000  0.000000  0.000000  0.000000  0.000000
                       0.000000  0.000000
                       2.000000  2.000000  2.000000  2.000000  2.000000  2.000000
                       2.000000  2.000000  2.000000  2.000000  2.000000  2.000000
                       2.000000  2.000000  2.000000  2.000000  2.000000  2.000000
                       2.000000  2.000000  2.000000  2.000000  2.000000  2.000000
                       2.000000  2.000000  2.000000  2.000000  2.000000  2.000000
                       2.000000  2.000000  2.000000  2.000000  2.000000  2.000000
                       2.000000  2.000000  0.000000  0.000000  0.000000  0.000000
                       0.000000  0.000000  0.000000  0.000000  0.000000  0.000000
                       0.000000  0.000000
                       2.000000  2.000000  2.000000  2.000000  2.000000  2.000000
                       2.000000  2.000000  2.000000  2.000000  2.000000  2.000000
                       2.000000  2.000000  2.000000  2.000000  2.000000  2.000000
                       2.000000  2.000000  2.000000  2.000000  2.000000  2.000000
                       2.000000  2.000000  2.000000  2.000000  2.000000  2.000000
                       2.000000  2.000000  2.000000  2.000000  2.000000  2.000000
                       2.000000  2.000000  0.000000  0.000000  0.000000  0.000000
                       0.000000  0.000000  0.000000  0.000000  0.000000  0.000000
                       0.000000  0.000000
                       2.000000  2.000000  2.000000  2.000000  2.000000  2.000000
                       2.000000  2.000000  2.000000  2.000000  2.000000  2.000000
                       2.000000  2.000000  2.000000  2.000000  2.000000  2.000000
                       2.000000  2.000000  2.000000  2.000000  2.000000  2.000000
                       2.000000  2.000000  2.000000  2.000000  2.000000  2.000000
                       2.000000  2.000000  2.000000  2.000000  2.000000  2.000000
                       2.000000  2.000000  0.000000  0.000000  0.000000  0.000000
                       0.000000  0.000000  0.000000  0.000000  0.000000  0.000000
                       0.000000  0.000000
                       2.000000  2.000000  2.000000  2.000000  2.000000  2.000000
                       2.000000  2.000000  2.000000  2.000000  2.000000  2.000000
                       2.000000  2.000000  2.000000  2.000000  2.000000  2.000000
                       2.000000  2.000000  2.000000  2.000000  2.000000  2.000000
                       2.000000  2.000000  2.000000  2.000000  2.000000  2.000000
                       2.000000  2.000000  2.000000  2.000000  2.000000  2.000000
                       2.000000  2.000000  0.000000  0.000000  0.000000  0.000000
                       0.000000  0.000000  0.000000  0.000000  0.000000  0.000000
                       0.000000  0.000000
                       2.000000  2.000000  2.000000  2.000000  2.000000  2.000000
                       2.000000  2.000000  2.000000  2.000000  2.000000  2.000000
                       2.000000  2.000000  2.000000  2.000000  2.000000  2.000000
                       2.000000  2.000000  2.000000  2.000000  2.000000  2.000000
                       2.000000  2.000000  2.000000  2.000000  2.000000  2.000000
                       2.000000  2.000000  2.000000  2.000000  2.000000  2.000000
                       2.000000  2.000000  0.000000  0.000000  0.000000  0.000000
                       0.000000  0.000000  0.000000  0.000000  0.000000  0.000000
                       0.000000  0.000000
                       2.000000  2.000000  2.000000  2.000000  2.000000  2.000000
                       2.000000  2.000000  2.000000  2.000000  2.000000  2.000000
                       2.000000  2.000000  2.000000  2.000000  2.000000  2.000000
                       2.000000  2.000000  2.000000  2.000000  2.000000  2.000000
                       2.000000  2.000000  2.000000  2.000000  2.000000  2.000000
                       2.000000  2.000000  2.000000  2.000000  2.000000  2.000000
                       2.000000  2.000000  0.000000  0.000000  0.000000  0.000000
                       0.000000  0.000000  0.000000  0.000000  0.000000  0.000000
                       0.000000  0.000000
                       2.000000  2.000000  2.000000  2.000000  2.000000  2.000000
                       2.000000  2.000000  2.000000  2.000000  2.000000  2.000000
                       2.000000  2.000000  2.000000  2.000000  2.000000  2.000000
                       2.000000  2.000000  2.000000  2.000000  2.000000  2.000000
                       2.000000  2.000000  2.000000  2.000000  2.000000  2.000000
                       2.000000  2.000000  2.000000  2.000000  2.000000  2.000000
                       2.000000  2.000000  0.000000  0.000000  0.000000  0.000000
                       0.000000  0.000000  0.000000  0.000000  0.000000  0.000000
                       0.000000  0.000000
                       2.000000  2.000000  2.000000  2.000000  2.000000  2.000000
                       2.000000  2.000000  2.000000  2.000000  2.000000  2.000000
                       2.000000  2.000000  2.000000  2.000000  2.000000  2.000000
                       2.000000  2.000000  2.000000  2.000000  2.000000  2.000000
                       2.000000  2.000000  2.000000  2.000000  2.000000  2.000000
                       2.000000  2.000000  2.000000  2.000000  2.000000  2.000000
                       2.000000  2.000000  0.000000  0.000000  0.000000  0.000000
                       0.000000  0.000000  0.000000  0.000000  0.000000  0.000000
                       0.000000  0.000000
                       2.000000  2.000000  2.000000  2.000000  2.000000  2.000000
                       2.000000  2.000000  2.000000  2.000000  2.000000  2.000000
                       2.000000  2.000000  2.000000  2.000000  2.000000  2.000000
                       2.000000  2.000000  2.000000  2.000000  2.000000  2.000000
                       2.000000  2.000000  2.000000  2.000000  2.000000  2.000000
                       2.000000  2.000000  2.000000  2.000000  2.000000  2.000000
                       2.000000  2.000000  0.000000  0.000000  0.000000  0.000000
                       0.000000  0.000000  0.000000  0.000000  0.000000  0.000000
                       0.000000  0.000000
                       2.000000  2.000000  2.000000  2.000000  2.000000  2.000000
                       2.000000  2.000000  2.000000  2.000000  2.000000  2.000000
                       2.000000  2.000000  2.000000  2.000000  2.000000  2.000000
                       2.000000  2.000000  2.000000  2.000000  2.000000  2.000000
                       2.000000  2.000000  2.000000  2.000000  2.000000  2.000000
                       2.000000  2.000000  2.000000  2.000000  2.000000  2.000000
                       2.000000  2.000000  0.000000  0.000000  0.000000  0.000000
                       0.000000  0.000000  0.000000  0.000000  0.000000  0.000000
                       0.000000  0.000000
                       2.000000  2.000000  2.000000  2.000000  2.000000  2.000000
                       2.000000  2.000000  2.000000  2.000000  2.000000  2.000000
                       2.000000  2.000000  2.000000  2.000000  2.000000  2.000000
                       2.000000  2.000000  2.000000  2.000000  2.000000  2.000000
                       2.000000  2.000000  2.000000  2.000000  2.000000  2.000000
                       2.000000  2.000000  2.000000  2.000000  2.000000  2.000000
                       2.000000  2.000000  0.000000  0.000000  0.000000  0.000000
                       0.000000  0.000000  0.000000  0.000000  0.000000  0.000000
                       0.000000  0.000000
                       2.000000  2.000000  2.000000  2.000000  2.000000  2.000000
                       2.000000  2.000000  2.000000  2.000000  2.000000  2.000000
                       2.000000  2.000000  2.000000  2.000000  2.000000  2.000000
                       2.000000  2.000000  2.000000  2.000000  2.000000  2.000000
                       2.000000  2.000000  2.000000  2.000000  2.000000  2.000000
                       2.000000  2.000000  2.000000  2.000000  2.000000  2.000000
                       2.000000  2.000000  0.000000  0.000000  0.000000  0.000000
                       0.000000  0.000000  0.000000  0.000000  0.000000  0.000000
                       0.000000  0.000000
                       2.000000  2.000000  2.000000  2.000000  2.000000  2.000000
                       2.000000  2.000000  2.000000  2.000000  2.000000  2.000000
                       2.000000  2.000000  2.000000  2.000000  2.000000  2.000000
                       2.000000  2.000000  2.000000  2.000000  2.000000  2.000000
                       2.000000  2.000000  2.000000  2.000000  2.000000  2.000000
                       2.000000  2.000000  2.000000  2.000000  2.000000  2.000000
                       2.000000  2.000000  0.000000  0.000000  0.000000  0.000000
                       0.000000  0.000000  0.000000  0.000000  0.000000  0.000000
                       0.000000  0.000000
                       2.000000  2.000000  2.000000  2.000000  2.000000  2.000000
                       2.000000  2.000000  2.000000  2.000000  2.000000  2.000000
                       2.000000  2.000000  2.000000  2.000000  2.000000  2.000000
                       2.000000  2.000000  2.000000  2.000000  2.000000  2.000000
                       2.000000  2.000000  2.000000  2.000000  2.000000  2.000000
                       2.000000  2.000000  2.000000  2.000000  2.000000  2.000000
                       2.000000  2.000000  0.000000  0.000000  0.000000  0.000000
                       0.000000  0.000000  0.000000  0.000000  0.000000  0.000000
                       0.000000  0.000000
                       2.000000  2.000000  2.000000  2.000000  2.000000  2.000000
                       2.000000  2.000000  2.000000  2.000000  2.000000  2.000000
                       2.000000  2.000000  2.000000  2.000000  2.000000  2.000000
                       2.000000  2.000000  2.000000  2.000000  2.000000  2.000000
                       2.000000  2.000000  2.000000  2.000000  2.000000  2.000000
                       2.000000  2.000000  2.000000  2.000000  2.000000  2.000000
                       2.000000  2.000000  0.000000  0.000000  0.000000  0.000000
                       0.000000  0.000000  0.000000  0.000000  0.000000  0.000000
                       0.000000  0.000000
                       2.000000  2.000000  2.000000  2.000000  2.000000  2.000000
                       2.000000  2.000000  2.000000  2.000000  2.000000  2.000000
                       2.000000  2.000000  2.000000  2.000000  2.000000  2.000000
                       2.000000  2.000000  2.000000  2.000000  2.000000  2.000000
                       2.000000  2.000000  2.000000  2.000000  2.000000  2.000000
                       2.000000  2.000000  2.000000  2.000000  2.000000  2.000000
                       2.000000  2.000000  0.000000  0.000000  0.000000  0.000000
                       0.000000  0.000000  0.000000  0.000000  0.000000  0.000000
                       0.000000  0.000000
                       2.000000  2.000000  2.000000  2.000000  2.000000  2.000000
                       2.000000  2.000000  2.000000  2.000000  2.000000  2.000000
                       2.000000  2.000000  2.000000  2.000000  2.000000  2.000000
                       2.000000  2.000000  2.000000  2.000000  2.000000  2.000000
                       2.000000  2.000000  2.000000  2.000000  2.000000  2.000000
                       2.000000  2.000000  2.000000  2.000000  2.000000  2.000000
                       2.000000  2.000000  0.000000  0.000000  0.000000  0.000000
                       0.000000  0.000000  0.000000  0.000000  0.000000  0.000000
                       0.000000  0.000000
                       2.000000  2.000000  2.000000  2.000000  2.000000  2.000000
                       2.000000  2.000000  2.000000  2.000000  2.000000  2.000000
                       2.000000  2.000000  2.000000  2.000000  2.000000  2.000000
                       2.000000  2.000000  2.000000  2.000000  2.000000  2.000000
                       2.000000  2.000000  2.000000  2.000000  2.000000  2.000000
                       2.000000  2.000000  2.000000  2.000000  2.000000  2.000000
                       2.000000  2.000000  0.000000  0.000000  0.000000  0.000000
                       0.000000  0.000000  0.000000  0.000000  0.000000  0.000000
                       0.000000  0.000000
                       2.000000  2.000000  2.000000  2.000000  2.000000  2.000000
                       2.000000  2.000000  2.000000  2.000000  2.000000  2.000000
                       2.000000  2.000000  2.000000  2.000000  2.000000  2.000000
                       2.000000  2.000000  2.000000  2.000000  2.000000  2.000000
                       2.000000  2.000000  2.000000  2.000000  2.000000  2.000000
                       2.000000  2.000000  2.000000  2.000000  2.000000  2.000000
                       2.000000  2.000000  0.000000  0.000000  0.000000  0.000000
                       0.000000  0.000000  0.000000  0.000000  0.000000  0.000000
                       0.000000  0.000000
                       2.000000  2.000000  2.000000  2.000000  2.000000  2.000000
                       2.000000  2.000000  2.000000  2.000000  2.000000  2.000000
                       2.000000  2.000000  2.000000  2.000000  2.000000  2.000000
                       2.000000  2.000000  2.000000  2.000000  2.000000  2.000000
                       2.000000  2.000000  2.000000  2.000000  2.000000  2.000000
                       2.000000  2.000000  2.000000  2.000000  2.000000  2.000000
                       2.000000  2.000000  0.000000  0.000000  0.000000  0.000000
                       0.000000  0.000000  0.000000  0.000000  0.000000  0.000000
                       0.000000  0.000000
                       2.000000  2.000000  2.000000  2.000000  2.000000  2.000000
                       2.000000  2.000000  2.000000  2.000000  2.000000  2.000000
                       2.000000  2.000000  2.000000  2.000000  2.000000  2.000000
                       2.000000  2.000000  2.000000  2.000000  2.000000  2.000000
                       2.000000  2.000000  2.000000  2.000000  2.000000  2.000000
                       2.000000  2.000000  2.000000  2.000000  2.000000  2.000000
                       2.000000  2.000000  0.000000  0.000000  0.000000  0.000000
                       0.000000  0.000000  0.000000  0.000000  0.000000  0.000000
                       0.000000  0.000000
                       2.000000  2.000000  2.000000  2.000000  2.000000  2.000000
                       2.000000  2.000000  2.000000  2.000000  2.000000  2.000000
                       2.000000  2.000000  2.000000  2.000000  2.000000  2.000000
                       2.000000  2.000000  2.000000  2.000000  2.000000  2.000000
                       2.000000  2.000000  2.000000  2.000000  2.000000  2.000000
                       2.000000  2.000000  2.000000  2.000000  2.000000  2.000000
                       2.000000  2.000000  0.000000  0.000000  0.000000  0.000000
                       0.000000  0.000000  0.000000  0.000000  0.000000  0.000000
                       0.000000  0.000000
                       2.000000  2.000000  2.000000  2.000000  2.000000  2.000000
                       2.000000  2.000000  2.000000  2.000000  2.000000  2.000000
                       2.000000  2.000000  2.000000  2.000000  2.000000  2.000000
                       2.000000  2.000000  2.000000  2.000000  2.000000  2.000000
                       2.000000  2.000000  2.000000  2.000000  2.000000  2.000000
                       2.000000  2.000000  2.000000  2.000000  2.000000  2.000000
                       2.000000  2.000000  0.000000  0.000000  0.000000  0.000000
                       0.000000  0.000000  0.000000  0.000000  0.000000  0.000000
                       0.000000  0.000000
                       2.000000  2.000000  2.000000  2.000000  2.000000  2.000000
                       2.000000  2.000000  2.000000  2.000000  2.000000  2.000000
                       2.000000  2.000000  2.000000  2.000000  2.000000  2.000000
                       2.000000  2.000000  2.000000  2.000000  2.000000  2.000000
                       2.000000  2.000000  2.000000  2.000000  2.000000  2.000000
                       2.000000  2.000000  2.000000  2.000000  2.000000  2.000000
                       2.000000  2.000000  0.000000  0.000000  0.000000  0.000000
                       0.000000  0.000000  0.000000  0.000000  0.000000  0.000000
                       0.000000  0.000000
                       2.000000  2.000000  2.000000  2.000000  2.000000  2.000000
                       2.000000  2.000000  2.000000  2.000000  2.000000  2.000000
                       2.000000  2.000000  2.000000  2.000000  2.000000  2.000000
                       2.000000  2.000000  2.000000  2.000000  2.000000  2.000000
                       2.000000  2.000000  2.000000  2.000000  2.000000  2.000000
                       2.000000  2.000000  2.000000  2.000000  2.000000  2.000000
                       2.000000  2.000000  0.000000  0.000000  0.000000  0.000000
                       0.000000  0.000000  0.000000  0.000000  0.000000  0.000000
                       0.000000  0.000000
                       2.000000  2.000000  2.000000  2.000000  2.000000  2.000000
                       2.000000  2.000000  2.000000  2.000000  2.000000  2.000000
                       2.000000  2.000000  2.000000  2.000000  2.000000  2.000000
                       2.000000  2.000000  2.000000  2.000000  2.000000  2.000000
                       2.000000  2.000000  2.000000  2.000000  2.000000  2.000000
                       2.000000  2.000000  2.000000  2.000000  2.000000  2.000000
                       2.000000  2.000000  0.000000  0.000000  0.000000  0.000000
                       0.000000  0.000000  0.000000  0.000000  0.000000  0.000000
                       0.000000  0.000000
                       2.000000  2.000000  2.000000  2.000000  2.000000  2.000000
                       2.000000  2.000000  2.000000  2.000000  2.000000  2.000000
                       2.000000  2.000000  2.000000  2.000000  2.000000  2.000000
                       2.000000  2.000000  2.000000  2.000000  2.000000  2.000000
                       2.000000  2.000000  2.000000  2.000000  2.000000  2.000000
                       2.000000  2.000000  2.000000  2.000000  2.000000  2.000000
                       2.000000  2.000000  0.000000  0.000000  0.000000  0.000000
                       0.000000  0.000000  0.000000  0.000000  0.000000  0.000000
                       0.000000  0.000000
                       2.000000  2.000000  2.000000  2.000000  2.000000  2.000000
                       2.000000  2.000000  2.000000  2.000000  2.000000  2.000000
                       2.000000  2.000000  2.000000  2.000000  2.000000  2.000000
                       2.000000  2.000000  2.000000  2.000000  2.000000  2.000000
                       2.000000  2.000000  2.000000  2.000000  2.000000  2.000000
                       2.000000  2.000000  2.000000  2.000000  2.000000  2.000000
                       2.000000  2.000000  0.000000  0.000000  0.000000  0.000000
                       0.000000  0.000000  0.000000  0.000000  0.000000  0.000000
                       0.000000  0.000000
                       2.000000  2.000000  2.000000  2.000000  2.000000  2.000000
                       2.000000  2.000000  2.000000  2.000000  2.000000  2.000000
                       2.000000  2.000000  2.000000  2.000000  2.000000  2.000000
                       2.000000  2.000000  2.000000  2.000000  2.000000  2.000000
                       2.000000  2.000000  2.000000  2.000000  2.000000  2.000000
                       2.000000  2.000000  2.000000  2.000000  2.000000  2.000000
                       2.000000  2.000000  0.000000  0.000000  0.000000  0.000000
                       0.000000  0.000000  0.000000  0.000000  0.000000  0.000000
                       0.000000  0.000000
                       2.000000  2.000000  2.000000  2.000000  2.000000  2.000000
                       2.000000  2.000000  2.000000  2.000000  2.000000  2.000000
                       2.000000  2.000000  2.000000  2.000000  2.000000  2.000000
                       2.000000  2.000000  2.000000  2.000000  2.000000  2.000000
                       2.000000  2.000000  2.000000  2.000000  2.000000  2.000000
                       2.000000  2.000000  2.000000  2.000000  2.000000  2.000000
                       2.000000  2.000000  0.000000  0.000000  0.000000  0.000000
                       0.000000  0.000000  0.000000  0.000000  0.000000  0.000000
                       0.000000  0.000000
                       2.000000  2.000000  2.000000  2.000000  2.000000  2.000000
                       2.000000  2.000000  2.000000  2.000000  2.000000  2.000000
                       2.000000  2.000000  2.000000  2.000000  2.000000  2.000000
                       2.000000  2.000000  2.000000  2.000000  2.000000  2.000000
                       2.000000  2.000000  2.000000  2.000000  2.000000  2.000000
                       2.000000  2.000000  2.000000  2.000000  2.000000  2.000000
                       2.000000  2.000000  0.000000  0.000000  0.000000  0.000000
                       0.000000  0.000000  0.000000  0.000000  0.000000  0.000000
                       0.000000  0.000000
                       2.000000  2.000000  2.000000  2.000000  2.000000  2.000000
                       2.000000  2.000000  2.000000  2.000000  2.000000  2.000000
                       2.000000  2.000000  2.000000  2.000000  2.000000  2.000000
                       2.000000  2.000000  2.000000  2.000000  2.000000  2.000000
                       2.000000  2.000000  2.000000  2.000000  2.000000  2.000000
                       2.000000  2.000000  2.000000  2.000000  2.000000  2.000000
                       2.000000  2.000000  0.000000  0.000000  0.000000  0.000000
                       0.000000  0.000000  0.000000  0.000000  0.000000  0.000000
                       0.000000  0.000000
                       2.000000  2.000000  2.000000  2.000000  2.000000  2.000000
                       2.000000  2.000000  2.000000  2.000000  2.000000  2.000000
                       2.000000  2.000000  2.000000  2.000000  2.000000  2.000000
                       2.000000  2.000000  2.000000  2.000000  2.000000  2.000000
                       2.000000  2.000000  2.000000  2.000000  2.000000  2.000000
                       2.000000  2.000000  2.000000  2.000000  2.000000  2.000000
                       2.000000  2.000000  0.000000  0.000000  0.000000  0.000000
                       0.000000  0.000000  0.000000  0.000000  0.000000  0.000000
                       0.000000  0.000000
                       2.000000  2.000000  2.000000  2.000000  2.000000  2.000000
                       2.000000  2.000000  2.000000  2.000000  2.000000  2.000000
                       2.000000  2.000000  2.000000  2.000000  2.000000  2.000000
                       2.000000  2.000000  2.000000  2.000000  2.000000  2.000000
                       2.000000  2.000000  2.000000  2.000000  2.000000  2.000000
                       2.000000  2.000000  2.000000  2.000000  2.000000  2.000000
                       2.000000  2.000000  0.000000  0.000000  0.000000  0.000000
                       0.000000  0.000000  0.000000  0.000000  0.000000  0.000000
                       0.000000  0.000000
                       2.000000  2.000000  2.000000  2.000000  2.000000  2.000000
                       2.000000  2.000000  2.000000  2.000000  2.000000  2.000000
                       2.000000  2.000000  2.000000  2.000000  2.000000  2.000000
                       2.000000  2.000000  2.000000  2.000000  2.000000  2.000000
                       2.000000  2.000000  2.000000  2.000000  2.000000  2.000000
                       2.000000  2.000000  2.000000  2.000000  2.000000  2.000000
                       2.000000  2.000000  0.000000  0.000000  0.000000  0.000000
                       0.000000  0.000000  0.000000  0.000000  0.000000  0.000000
                       0.000000  0.000000
                       2.000000  2.000000  2.000000  2.000000  2.000000  2.000000
                       2.000000  2.000000  2.000000  2.000000  2.000000  2.000000
                       2.000000  2.000000  2.000000  2.000000  2.000000  2.000000
                       2.000000  2.000000  2.000000  2.000000  2.000000  2.000000
                       2.000000  2.000000  2.000000  2.000000  2.000000  2.000000
                       2.000000  2.000000  2.000000  2.000000  2.000000  2.000000
                       2.000000  2.000000  0.000000  0.000000  0.000000  0.000000
                       0.000000  0.000000  0.000000  0.000000  0.000000  0.000000
                       0.000000  0.000000
                       2.000000  2.000000  2.000000  2.000000  2.000000  2.000000
                       2.000000  2.000000  2.000000  2.000000  2.000000  2.000000
                       2.000000  2.000000  2.000000  2.000000  2.000000  2.000000
                       2.000000  2.000000  2.000000  2.000000  2.000000  2.000000
                       2.000000  2.000000  2.000000  2.000000  2.000000  2.000000
                       2.000000  2.000000  2.000000  2.000000  2.000000  2.000000
                       2.000000  2.000000  0.000000  0.000000  0.000000  0.000000
                       0.000000  0.000000  0.000000  0.000000  0.000000  0.000000
                       0.000000  0.000000
                       2.000000  2.000000  2.000000  2.000000  2.000000  2.000000
                       2.000000  2.000000  2.000000  2.000000  2.000000  2.000000
                       2.000000  2.000000  2.000000  2.000000  2.000000  2.000000
                       2.000000  2.000000  2.000000  2.000000  2.000000  2.000000
                       2.000000  2.000000  2.000000  2.000000  2.000000  2.000000
                       2.000000  2.000000  2.000000  2.000000  2.000000  2.000000
                       2.000000  2.000000  0.000000  0.000000  0.000000  0.000000
                       0.000000  0.000000  0.000000  0.000000  0.000000  0.000000
                       0.000000  0.000000
                       2.000000  2.000000  2.000000  2.000000  2.000000  2.000000
                       2.000000  2.000000  2.000000  2.000000  2.000000  2.000000
                       2.000000  2.000000  2.000000  2.000000  2.000000  2.000000
                       2.000000  2.000000  2.000000  2.000000  2.000000  2.000000
                       2.000000  2.000000  2.000000  2.000000  2.000000  2.000000
                       2.000000  2.000000  2.000000  2.000000  2.000000  2.000000
                       2.000000  2.000000  0.000000  0.000000  0.000000  0.000000
                       0.000000  0.000000  0.000000  0.000000  0.000000  0.000000
                       0.000000  0.000000
                       2.000000  2.000000  2.000000  2.000000  2.000000  2.000000
                       2.000000  2.000000  2.000000  2.000000  2.000000  2.000000
                       2.000000  2.000000  2.000000  2.000000  2.000000  2.000000
                       2.000000  2.000000  2.000000  2.000000  2.000000  2.000000
                       2.000000  2.000000  2.000000  2.000000  2.000000  2.000000
                       2.000000  2.000000  2.000000  2.000000  2.000000  2.000000
                       2.000000  2.000000  0.000000  0.000000  0.000000  0.000000
                       0.000000  0.000000  0.000000  0.000000  0.000000  0.000000
                       0.000000  0.000000
                       2.000000  2.000000  2.000000  2.000000  2.000000  2.000000
                       2.000000  2.000000  2.000000  2.000000  2.000000  2.000000
                       2.000000  2.000000  2.000000  2.000000  2.000000  2.000000
                       2.000000  2.000000  2.000000  2.000000  2.000000  2.000000
                       2.000000  2.000000  2.000000  2.000000  2.000000  2.000000
                       2.000000  2.000000  2.000000  2.000000  2.000000  2.000000
                       2.000000  2.000000  0.000000  0.000000  0.000000  0.000000
                       0.000000  0.000000  0.000000  0.000000  0.000000  0.000000
                       0.000000  0.000000
                       2.000000  2.000000  2.000000  2.000000  2.000000  2.000000
                       2.000000  2.000000  2.000000  2.000000  2.000000  2.000000
                       2.000000  2.000000  2.000000  2.000000  2.000000  2.000000
                       2.000000  2.000000  2.000000  2.000000  2.000000  2.000000
                       2.000000  2.000000  2.000000  2.000000  2.000000  2.000000
                       2.000000  2.000000  2.000000  2.000000  2.000000  2.000000
                       2.000000  2.000000  0.000000  0.000000  0.000000  0.000000
                       0.000000  0.000000  0.000000  0.000000  0.000000  0.000000
                       0.000000  0.000000
                       prtocc : prtvol=0, do not print more k-points.
           occopt           3
           prtden           0
            prtwf           0
            rprim      7.8825913395E+00  0.0000000000E+00  0.0000000000E+00
                       0.0000000000E+00  7.8825913395E+00  0.0000000000E+00
                       0.0000000000E+00  0.0000000000E+00  7.8825913395E+00
          spgroup           1
           toldfe      5.00000000E-05 Hartree
           tsmear      1.00000000E-03 Hartree
            typat      1  1  1  1
              wtk        0.00100    0.00200    0.00200    0.00200    0.00200    0.00100
                         0.00200    0.00200    0.00200    0.00200    0.00200    0.00200
                         0.00200    0.00200    0.00200    0.00200    0.00200    0.00200
                         0.00200    0.00200    0.00200    0.00200    0.00200    0.00200
                         0.00200    0.00200    0.00200    0.00200    0.00200    0.00200
                         0.00200    0.00200    0.00200    0.00200    0.00200    0.00200
                         0.00200    0.00200    0.00200    0.00200    0.00200    0.00200
                         0.00200    0.00200    0.00200    0.00200    0.00100    0.00200
                         0.00200    0.00200
                       outvars : Printing only first  50 k-points.
           xangst      0.0000000000E+00  0.0000000000E+00  0.0000000000E+00
                       0.0000000000E+00  2.0856438408E+00  2.0856438408E+00
                       2.0856438408E+00  0.0000000000E+00  2.0856438408E+00
                       2.0856438408E+00  2.0856438408E+00  0.0000000000E+00
            xcart      0.0000000000E+00  0.0000000000E+00  0.0000000000E+00
                       0.0000000000E+00  3.9412956698E+00  3.9412956698E+00
                       3.9412956698E+00  0.0000000000E+00  3.9412956698E+00
                       3.9412956698E+00  3.9412956698E+00  0.0000000000E+00
             xred      0.0000000000E+00  0.0000000000E+00  0.0000000000E+00
                       0.0000000000E+00  5.0000000000E-01  5.0000000000E-01
                       5.0000000000E-01  0.0000000000E+00  5.0000000000E-01
                       5.0000000000E-01  5.0000000000E-01  0.0000000000E+00
            znucl       79.00000

================================================================================

 chkinp: Checking input parameters for consistency.
 DATA TYPE INFORMATION: 
 REAL:      Data type name: REAL(DP) 
            Kind value:      8
            Precision:      15
            Smallest nonnegligible quantity relative to 1: 0.22204460E-015
            Smallest positive number:                      0.22250739E-307
            Largest representable number:                  0.17976931E+309
 INTEGER:   Data type name: INTEGER(default) 
            Kind value: 4
            Bit size:   32
            Largest representable number: 2147483647
 LOGICAL:   Data type name: LOGICAL 
            Kind value: 4
 CHARACTER: Data type name: CHARACTER             Kind value: 1

  ==== OpenMP parallelism is OFF ====
 
  ==== Using MPI-2 specifications ==== 
  MPI-IO support is ON
  xmpi_tag_ub ................    268435455
  xmpi_bsize_ch ..............            1
  xmpi_bsize_int .............            4
  xmpi_bsize_sp ..............            4
  xmpi_bsize_dp ..............            8
  xmpi_bsize_spc .............            8
  xmpi_bsize_dpc .............           16
  xmpio_bsize_frm ............            4
  xmpi_address_kind ..........            8
  xmpi_offset_kind ...........            8
  MPI_WTICK ..................    1.0000000000000001E-009

================================================================================
== DATASET  1 ==================================================================
-   mpi_nproc: 12, omp_nthreads: -1 (-1 if OMP is not activated)


--- !COMMENT
src_file: m_xgScalapack.F90
src_line: 236
message: |
    xgScalapack in auto mode
...


 getdim_nloc : deduce lmnmax  =  48, lnmax  =  12,
                      lmnmaxso=  48, lnmaxso=  12.
 Exchange-correlation functional for the present dataset will be:
  GGA: Perdew-Burke-Ernzerhof functional - ixc=11
 Citation for XC functional:
  J.P.Perdew, K.Burke, M.Ernzerhof, PRL 77, 3865 (1996)

 Unit cell volume ucvol=  4.8978675E+02 bohr^3
 Angles (23,13,12)=  9.00000000E+01  9.00000000E+01  9.00000000E+01 degrees

 getcut: wavevector=  0.0000  0.0000  0.0000  ngfft=  80  80  80
         ecut(hartree)=    120.000   => boxcut(ratio)=   2.05809
- pspini: atom type   1  psp file is Au_noFR.psp8
- pspatm: opening atomic psp file    Au_noFR.psp8
- Au    ONCVPSP-3.3.0  r_core=   1.45604   1.56407   1.56407   1.60183
- 79.00000  19.00000    180423                znucl, zion, pspdat
    8   11    3    4       500   0.00000      pspcod,pspxc,lmax,lloc,mmax,r2well
    4.99000000000000    5.00000000000000    0.00000000000000   rchrg,fchrg,qchrg
     nproj     2     4     4     2
     extension_switch     0
  pspatm : epsatm=   32.19120332
         --- l  ekb(1:nproj) -->
             0   -0.193641    9.439572
             1    7.758579    0.901130   -0.048435    0.000095
             2    1.175170    0.116036   -0.083856    0.000147
             3    1.162391    0.000228
 pspatm: atomic psp has been read  and splines computed

   9.78612581E+03                                ecore*ucvol(ha*bohr**3)
 ==== Info on pseudopotentials ====
  Norm-conserving pseudopotentials
  Number of pseudopotentials ..    1
  Number of types of atoms   ..    1
  Scalar calculation (no spin-orbit term)
  Nonlocal part applied using Legendre polynomials
  Max number of non-local projectors over l and type   4
  Highest angular momentum +1 .......   4
  Max number of (l,n)   components ..  12
  Max number of (l,m,n) components ..  12

 Pseudo-Core Charge Info: 
   Number of radial points for pseudo-core charge .. 2501
   XC core-correction treatment (optnlxccc) ........    1
   Radius for pseudo-core charge for each type ..... 

  - Atom type    1 has pseudo-core radius ..  4.9900

 Info on the Q-grid used for form factors in spline form: 
   Number of q-points for radial functions ffspl ..   3888
   Number of q-points for vlspl ...................   3888
   vloc is computed in Reciprocal Space
   model core charge treated in real-space

  XC functional for type 1 is 11
  Pseudo valence available: no

 wfconv:    50 bands initialized randomly with npw= 15420, for ikpt=     1
 wfconv:    50 bands initialized randomly with npw= 30835, for ikpt=     2
 wfconv:    50 bands initialized randomly with npw= 30799, for ikpt=     3
 wfconv:    50 bands initialized randomly with npw= 30763, for ikpt=     4
 wfconv:    50 bands initialized randomly with npw= 30735, for ikpt=     5
 wfconv:    50 bands initialized randomly with npw= 15375, for ikpt=     6
 wfconv:    50 bands initialized randomly with npw= 30835, for ikpt=     7
 wfconv:    50 bands initialized randomly with npw= 30839, for ikpt=     8
 wfconv:    50 bands initialized randomly with npw= 30787, for ikpt=     9
 wfconv:    50 bands initialized randomly with npw= 30785, for ikpt=    10
 wfconv:    50 bands initialized randomly with npw= 30746, for ikpt=    11
 wfconv:    50 bands initialized randomly with npw= 30718, for ikpt=    12
 wfconv:    50 bands initialized randomly with npw= 30746, for ikpt=    13
 wfconv:    50 bands initialized randomly with npw= 30785, for ikpt=    14
 wfconv:    50 bands initialized randomly with npw= 30787, for ikpt=    15
 wfconv:    50 bands initialized randomly with npw= 30839, for ikpt=    16
 wfconv:    50 bands initialized randomly with npw= 30799, for ikpt=    17
 wfconv:    50 bands initialized randomly with npw= 30787, for ikpt=    18
 wfconv:    50 bands initialized randomly with npw= 30785, for ikpt=    19
 wfconv:    50 bands initialized randomly with npw= 30781, for ikpt=    20
 wfconv:    50 bands initialized randomly with npw= 30743, for ikpt=    21
 wfconv:    50 bands initialized randomly with npw= 30774, for ikpt=    22
 wfconv:    50 bands initialized randomly with npw= 30743, for ikpt=    23
 wfconv:    50 bands initialized randomly with npw= 30781, for ikpt=    24
 wfconv:    50 bands initialized randomly with npw= 30785, for ikpt=    25
 wfconv:    50 bands initialized randomly with npw= 30787, for ikpt=    26
 wfconv:    50 bands initialized randomly with npw= 30763, for ikpt=    27
 wfconv:    50 bands initialized randomly with npw= 30785, for ikpt=    28
 wfconv:    50 bands initialized randomly with npw= 30781, for ikpt=    29
 wfconv:    50 bands initialized randomly with npw= 30752, for ikpt=    30
 wfconv:    50 bands initialized randomly with npw= 30743, for ikpt=    31
 wfconv:    50 bands initialized randomly with npw= 30724, for ikpt=    32
 wfconv:    50 bands initialized randomly with npw= 30743, for ikpt=    33
 wfconv:    50 bands initialized randomly with npw= 30752, for ikpt=    34
 wfconv:    50 bands initialized randomly with npw= 30781, for ikpt=    35
 wfconv:    50 bands initialized randomly with npw= 30785, for ikpt=    36
 wfconv:    50 bands initialized randomly with npw= 30735, for ikpt=    37
 wfconv:    50 bands initialized randomly with npw= 30746, for ikpt=    38
 wfconv:    50 bands initialized randomly with npw= 30743, for ikpt=    39
 wfconv:    50 bands initialized randomly with npw= 30743, for ikpt=    40
 wfconv:    50 bands initialized randomly with npw= 30748, for ikpt=    41
 wfconv:    50 bands initialized randomly with npw= 30714, for ikpt=    42
_setup2: Arith. and geom. avg. npw (full set) are   30752.625   30752.616
 initro: for itypat=  1, take decay length=      0.8000,
 initro: indeed, coreel=     60.0000, nval= 19 and densty=  0.0000E+00.

================================================================================

 getcut: wavevector=  0.0000  0.0000  0.0000  ngfft=  80  80  80
         ecut(hartree)=    120.000   => boxcut(ratio)=   2.05809

 1/G**2 cut-off applied in the following step : cutoff-mode = CRYSTAL

 1/G**2 cut-off applied in the following step : cutoff-mode = CRYSTAL

 1/G**2 cut-off applied in the following step : cutoff-mode = CRYSTAL

 ITER STEP NUMBER     1
 Max number of non-self-consistent loops: 2
 newocc: new Fermi energy is       0.137375 , with nelect=     76.000000, Number of bisection calls: 47
 mkrho: echo density (plane-wave part only)
 Total charge density [el/Bohr^3]
      Maximum=    2.4891E+00  at reduced coord.    0.9125    0.0000    0.0250
      Minimum=    9.9919E-04  at reduced coord.    0.0000    0.0000    0.5000
   Integrated=    7.6000E+01
 Total charge density [el/Bohr^3]
      Maximum=    2.4891E+00  at reduced coord.    0.9125    0.0000    0.0250
      Minimum=    9.9919E-04  at reduced coord.    0.0000    0.0000    0.5000
   Integrated=    7.6000E+01

 1/G**2 cut-off applied in the following step : cutoff-mode = CRYSTAL
 ETOT  1  -559.25198584981    -5.593E+02 5.456E-01 6.761E+05
 scprqt: <Vxc>= -3.5661300E-01 hartree

 Simple mixing update:
  residual square of the potential:    60852.010499489341
{SCF_istep: 1 , Vnl|psi>: 21000 , wall_time: ' 13:49 [minutes] '} <<< TIME

 ITER STEP NUMBER     2
 Max number of non-self-consistent loops: 2
 newocc: new Fermi energy is       0.467132 , with nelect=     76.000000, Number of bisection calls: 46
 mkrho: echo density (plane-wave part only)
 Total charge density [el/Bohr^3]
      Maximum=    2.0232E+00  at reduced coord.    0.5875    0.5250    0.0250
      Minimum=    3.1728E-03  at reduced coord.    0.0000    0.0000    0.5000
   Integrated=    7.6000E+01
 Total charge density [el/Bohr^3]
      Maximum=    2.0232E+00  at reduced coord.    0.5875    0.5250    0.0250
      Minimum=    3.1728E-03  at reduced coord.    0.0000    0.0000    0.5000
   Integrated=    7.6000E+01
 ETOT  2  -580.91193490357    -2.166E+01 6.658E-02 1.804E+05
 scprqt: <Vxc>= -4.0520676E-01 hartree

 Pulay update with  1 previous iterations:
 mixing of old trial potential: alpha(m:m-4)=   2.06      -1.06
{SCF_istep: 2 , Vnl|psi>: 19833 , wall_time: ' 12:55 [minutes] '} <<< TIME

 ITER STEP NUMBER     3
 newocc: new Fermi energy is       0.594491 , with nelect=     76.000000, Number of bisection calls: 48
 mkrho: echo density (plane-wave part only)
 Total charge density [el/Bohr^3]
      Maximum=    1.4621E+00  at reduced coord.    0.0125    0.5250    0.5875
      Minimum=    2.0761E-02  at reduced coord.    0.0000    0.0000    0.5000
   Integrated=    7.6000E+01
 Total charge density [el/Bohr^3]
      Maximum=    1.4621E+00  at reduced coord.    0.0125    0.5250    0.5875
      Minimum=    2.0761E-02  at reduced coord.    0.0000    0.0000    0.5000
   Integrated=    7.6000E+01
 ETOT  3  -588.95244761893    -8.041E+00 1.103E-01 1.954E+04
 scprqt: <Vxc>= -5.0908614E-01 hartree

 Pulay update with  2 previous iterations:
 mixing of old trial potential: alpha(m:m-4)=  0.869     -0.335E-01  0.165
{SCF_istep: 3 , Vnl|psi>: 9300 , wall_time: ' 06:17 [minutes] '} <<< TIME

 ITER STEP NUMBER     4
 newocc: new Fermi energy is       0.388752 , with nelect=     76.000000, Number of bisection calls: 47
 mkrho: echo density (plane-wave part only)
 Total charge density [el/Bohr^3]
      Maximum=    1.6312E+00  at reduced coord.    0.5250    0.5875    0.0250
      Minimum=    1.0385E-02  at reduced coord.    0.5000    0.0000    0.0000
   Integrated=    7.6000E+01
 Total charge density [el/Bohr^3]
      Maximum=    1.6312E+00  at reduced coord.    0.5250    0.5875    0.0250
      Minimum=    1.0385E-02  at reduced coord.    0.5000    0.0000    0.0000
   Integrated=    7.6000E+01
 ETOT  4  -590.03999219838    -1.088E+00 4.217E-02 2.827E+03
 scprqt: <Vxc>= -4.7397586E-01 hartree

 Pulay update with  3 previous iterations:
 mixing of old trial potential: alpha(m:m-4)=   1.15      0.210     -0.666      0.309
{SCF_istep: 4 , Vnl|psi>: 9367 , wall_time: ' 06:21 [minutes] '} <<< TIME

 ITER STEP NUMBER     5
 newocc: new Fermi energy is       0.429654 , with nelect=     76.000000, Number of bisection calls: 46
 mkrho: echo density (plane-wave part only)
 Total charge density [el/Bohr^3]
      Maximum=    1.6207E+00  at reduced coord.    0.5875    0.5250    0.0250
      Minimum=    1.1281E-02  at reduced coord.    0.0000    0.0000    0.5000
   Integrated=    7.6000E+01
 Total charge density [el/Bohr^3]
      Maximum=    1.6207E+00  at reduced coord.    0.5875    0.5250    0.0250
      Minimum=    1.1281E-02  at reduced coord.    0.0000    0.0000    0.5000
   Integrated=    7.6000E+01
 ETOT  5  -590.12270315392    -8.271E-02 1.438E-01 1.335E+03
 scprqt: <Vxc>= -4.7775822E-01 hartree

 Pulay update with  4 previous iterations:
 mixing of old trial potential: alpha(m:m-4)=   2.43      -1.57      0.734E-01  0.117     -0.561E-01
{SCF_istep: 5 , Vnl|psi>: 9689 , wall_time: ' 06:33 [minutes] '} <<< TIME

 ITER STEP NUMBER     6
 newocc: new Fermi energy is       0.445971 , with nelect=     76.000000, Number of bisection calls: 47
 mkrho: echo density (plane-wave part only)
 Total charge density [el/Bohr^3]
      Maximum=    1.5874E+00  at reduced coord.    0.4750    0.9750    0.5875
      Minimum=    1.3453E-02  at reduced coord.    0.0000    0.0000    0.5000
   Integrated=    7.6000E+01
 Total charge density [el/Bohr^3]
      Maximum=    1.5874E+00  at reduced coord.    0.4750    0.9750    0.5875
      Minimum=    1.3453E-02  at reduced coord.    0.0000    0.0000    0.5000
   Integrated=    7.6000E+01
 ETOT  6  -590.19482511790    -7.212E-02 5.678E-02 3.791E+01
 scprqt: <Vxc>= -4.8652374E-01 hartree

 Pulay update with  5 previous iterations:
 mixing of old trial potential: alpha(m:m-4)=   1.80      -1.86       1.11     -0.936E-01  0.662E-01
{SCF_istep: 6 , Vnl|psi>: 9159 , wall_time: ' 06:14 [minutes] '} <<< TIME

 ITER STEP NUMBER     7
 newocc: new Fermi energy is       0.435135 , with nelect=     76.000000, Number of bisection calls: 47
 mkrho: echo density (plane-wave part only)
 Total charge density [el/Bohr^3]
      Maximum=    1.5900E+00  at reduced coord.    0.0875    0.9750    0.0250
      Minimum=    1.3228E-02  at reduced coord.    0.0000    0.5000    0.0000
   Integrated=    7.6000E+01
 Total charge density [el/Bohr^3]
      Maximum=    1.5900E+00  at reduced coord.    0.0875    0.9750    0.0250
      Minimum=    1.3228E-02  at reduced coord.    0.0000    0.5000    0.0000
   Integrated=    7.6000E+01
 ETOT  7  -590.19682150220    -1.996E-03 1.934E-02 5.333E+00
 scprqt: <Vxc>= -4.8571667E-01 hartree

 Pulay update with  6 previous iterations:
 mixing of old trial potential: alpha(m:m-4)=   1.44     -0.295     -0.269      0.137     -0.159E-01
{SCF_istep: 7 , Vnl|psi>: 9360 , wall_time: ' 06:18 [minutes] '} <<< TIME

 ITER STEP NUMBER     8
 newocc: new Fermi energy is       0.434836 , with nelect=     76.000000, Number of bisection calls: 43
 mkrho: echo density (plane-wave part only)
 Total charge density [el/Bohr^3]
      Maximum=    1.5919E+00  at reduced coord.    0.4750    0.9750    0.4125
      Minimum=    1.3135E-02  at reduced coord.    0.5000    0.0000    0.0000
   Integrated=    7.6000E+01
 Total charge density [el/Bohr^3]
      Maximum=    1.5919E+00  at reduced coord.    0.4750    0.9750    0.4125
      Minimum=    1.3135E-02  at reduced coord.    0.5000    0.0000    0.0000
   Integrated=    7.6000E+01
 ETOT  8  -590.19715603585    -3.345E-04 1.650E-01 9.274E-03
 scprqt: <Vxc>= -4.8527537E-01 hartree

 Pulay update with  7 previous iterations:
 mixing of old trial potential: alpha(m:m-4)=  0.974      0.128     -0.143      0.108     -0.750E-01
{SCF_istep: 8 , Vnl|psi>: 9261 , wall_time: ' 06:18 [minutes] '} <<< TIME

 ITER STEP NUMBER     9
 newocc: new Fermi energy is       0.435228 , with nelect=     76.000000, Number of bisection calls: 46
 mkrho: echo density (plane-wave part only)
 Total charge density [el/Bohr^3]
      Maximum=    1.5920E+00  at reduced coord.    0.4750    0.5250    0.9125
      Minimum=    1.3131E-02  at reduced coord.    0.5000    0.0000    0.0000
   Integrated=    7.6000E+01
 Total charge density [el/Bohr^3]
      Maximum=    1.5920E+00  at reduced coord.    0.4750    0.5250    0.9125
      Minimum=    1.3131E-02  at reduced coord.    0.5000    0.0000    0.0000
   Integrated=    7.6000E+01
 ETOT  9  -590.19715642800    -3.921E-07 1.123E-02 1.391E-03
 scprqt: <Vxc>= -4.8525500E-01 hartree

 Pulay update with  7 previous iterations:
 mixing of old trial potential: alpha(m:m-4)=   2.62      -1.32     -0.556      0.256     -0.192E-01
{SCF_istep: 9 , Vnl|psi>: 9626 , wall_time: ' 06:27 [minutes] '} <<< TIME

 ITER STEP NUMBER    10
 newocc: new Fermi energy is       0.435297 , with nelect=     76.000000, Number of bisection calls: 47
 mkrho: echo density (plane-wave part only)
 Total charge density [el/Bohr^3]
      Maximum=    1.5919E+00  at reduced coord.    0.0250    0.4125    0.5250
      Minimum=    1.3136E-02  at reduced coord.    0.0000    0.0000    0.5000
   Integrated=    7.6000E+01
 Total charge density [el/Bohr^3]
      Maximum=    1.5919E+00  at reduced coord.    0.0250    0.4125    0.5250
      Minimum=    1.3136E-02  at reduced coord.    0.0000    0.0000    0.5000
   Integrated=    7.6000E+01
 ETOT 10  -590.19715621702     2.110E-07 1.039E-03 4.636E-03
 scprqt: <Vxc>= -4.8527462E-01 hartree

 At SCF step   10, etot is converged : 
  for the second time, diff in etot=  2.110E-07 < toldfe=  5.000E-05
 
 -------------------------------------------------------------------------------------------------
 Ekinetic   = :     1.700445E+02 Ha ,    4.627147E+03 eV
 Evext_l    = :    -3.778909E+02 Ha ,   -1.028293E+04 eV
 Evext_nl   = :     9.988024E+00 Ha ,    2.717879E+02 eV
 Epsp_core  = :     1.998038E+01 Ha ,    5.436938E+02 eV
 Ehartree   = :     1.089382E+02 Ha ,    2.964359E+03 eV
 Exc_ks     = :    -1.013103E+02 Ha ,   -2.756793E+03 eV
 Enn        = :    -4.199470E+02 Ha ,   -1.142734E+04 eV
 -------------------------------------------------------------------------------------------------
 Etot       = :    -5.901970E+02 Ha ,   -1.606008E+04 eV
 -------------------------------------------------------------------------------------------------

 Cartesian components of stress tensor (hartree/bohr^3)
  sigma(1 1)=  8.72318681E-05  sigma(3 2)= -8.92577759E-09
  sigma(2 2)=  8.72066528E-05  sigma(3 1)= -9.06815066E-09
  sigma(3 3)=  8.72040322E-05  sigma(2 1)=  1.59519227E-09

- Creating netcdf file WITHOUT MPI-IO support: abo_GSR.nc
 Integrated electronic density in atomic spheres:
 ------------------------------------------------
 Atom  Sphere_radius  Integrated_density
    1        2.00000         15.56056227
    2        2.00000         15.56056886
    3        2.00000         15.56057109
    4        2.00000         15.56056587
================================================================================

 ----iterations are completed or convergence reached----

 Mean square residual over all n,k,spin=   25.373E-08; max=  10.390E-04
   0.0000  0.0000  0.0000    1  2.13768E-09 kpt; spin; max resid(k); each band:
  4.41E-10 5.29E-10 5.40E-10 5.42E-10 1.23E-09 1.22E-09 1.22E-09 1.08E-09
  1.07E-09 1.06E-09 1.06E-09 1.06E-09 1.07E-09 3.09E-11 3.02E-11 2.87E-11
  4.08E-10 1.80E-09 1.75E-09 1.76E-09 1.87E-10 1.83E-10 1.82E-10 1.14E-10
  1.09E-10 1.09E-10 7.26E-11 7.03E-11 4.99E-11 4.91E-11 4.77E-11 4.58E-11
  4.62E-11 4.46E-11 4.89E-11 4.49E-11 4.63E-11 1.20E-09 1.21E-09 1.20E-09
  2.04E-09 2.09E-09 2.14E-09 1.06E-09 1.05E-09 1.05E-09 1.05E-09 1.05E-09
  1.05E-09 1.22E-09
   0.1000  0.0000  0.0000    1  2.16333E-09 kpt; spin; max resid(k); each band:
  4.38E-10 5.44E-10 5.23E-10 5.54E-10 1.23E-09 1.22E-09 1.21E-09 1.07E-09
  1.07E-09 1.00E-09 1.00E-09 1.07E-09 1.06E-09 4.12E-11 3.29E-11 3.18E-11
  4.18E-10 1.78E-09 2.05E-09 2.03E-09 1.86E-10 3.50E-10 3.50E-10 2.39E-10
  1.10E-10 1.10E-10 7.57E-11 7.21E-11 1.74E-10 1.64E-10 5.19E-11 1.14E-09
  1.13E-09 1.83E-10 1.82E-10 4.57E-11 4.63E-11 1.65E-09 2.10E-09 2.11E-09
  2.01E-09 2.07E-09 2.16E-09 1.23E-09 1.23E-09 1.63E-09 1.61E-09 1.18E-09
  1.17E-09 8.74E-10
   0.2000  0.0000  0.0000    1  4.02329E-08 kpt; spin; max resid(k); each band:
  4.28E-10 5.40E-10 5.29E-10 5.61E-10 1.21E-09 1.21E-09 1.20E-09 1.08E-09
  1.07E-09 8.81E-10 8.83E-10 1.06E-09 1.05E-09 7.77E-11 3.81E-11 3.70E-11
  4.52E-10 1.89E-09 2.54E-09 2.53E-09 1.88E-10 7.66E-10 7.65E-10 5.94E-10
  1.84E-11 1.81E-11 2.26E-11 7.04E-11 1.98E-09 1.97E-09 4.75E-10 4.44E-10
  5.46E-11 5.09E-10 5.06E-10 4.56E-11 4.62E-11 2.07E-09 2.78E-09 2.79E-09
  1.83E-09 1.86E-09 2.18E-09 1.64E-09 1.64E-09 2.68E-09 2.65E-09 1.48E-09
  1.47E-09 4.02E-08
   0.3000  0.0000  0.0000    1  1.39510E-05 kpt; spin; max resid(k); each band:
  4.13E-10 5.33E-10 5.31E-10 5.64E-10 1.19E-09 1.18E-09 1.17E-09 1.09E-09
  1.08E-09 7.81E-10 7.81E-10 1.05E-09 1.03E-09 1.36E-10 4.56E-11 4.44E-11
  5.29E-10 2.05E-09 2.99E-09 2.98E-09 1.77E-10 1.26E-09 1.26E-09 1.12E-09
  3.42E-11 3.37E-11 2.22E-09 2.22E-09 7.09E-11 6.79E-11 8.17E-10 6.91E-10
  2.45E-09 8.73E-10 8.68E-10 5.74E-11 4.55E-11 4.61E-11 2.98E-09 2.99E-09
  1.61E-09 1.61E-09 2.11E-09 2.12E-09 3.45E-09 3.42E-09 2.16E-09 1.80E-09
  1.79E-09 1.40E-05
   0.4000  0.0000  0.0000    1  1.99832E-06 kpt; spin; max resid(k); each band:
  3.94E-10 5.16E-10 5.29E-10 5.62E-10 1.16E-09 1.16E-09 1.12E-09 1.11E-09
  1.10E-09 7.20E-10 7.20E-10 2.14E-10 1.02E-09 1.01E-09 2.50E-10 7.04E-10
  7.11E-10 1.93E-09 1.62E-10 3.33E-09 3.31E-09 1.69E-09 1.69E-09 1.35E-10
  2.20E-09 2.19E-09 2.46E-10 3.53E-10 9.94E-10 2.54E-09 1.03E-09 9.36E-10
  1.17E-09 1.16E-09 6.51E-11 6.00E-11 4.54E-11 4.59E-11 1.46E-09 1.43E-09
  2.95E-09 2.96E-09 2.51E-09 2.52E-09 3.85E-09 3.83E-09 2.07E-09 2.05E-09
  2.17E-09 2.00E-06
   0.5000  0.0000  0.0000    1  3.96566E-09 kpt; spin; max resid(k); each band:
  3.63E-10 3.76E-10 5.27E-10 5.61E-10 1.12E-09 1.11E-09 1.15E-09 1.15E-09
  3.07E-10 3.11E-10 7.00E-10 7.00E-10 9.61E-10 9.46E-10 9.86E-10 9.80E-10
  1.14E-09 1.13E-09 3.48E-09 3.46E-09 1.44E-10 1.40E-10 2.09E-09 2.07E-09
  1.94E-09 1.93E-09 8.12E-10 7.45E-10 1.38E-09 1.37E-09 1.31E-09 1.30E-09
  1.07E-09 9.66E-10 5.83E-11 5.77E-11 4.54E-11 4.59E-11 1.41E-09 1.37E-09
  2.70E-09 2.71E-09 2.88E-09 2.89E-09 3.97E-09 3.95E-09 2.45E-09 3.53E-09
  3.87E-09 2.85E-09
   0.0000  0.1000  0.0000    1  2.18188E-09 kpt; spin; max resid(k); each band:
  4.38E-10 5.34E-10 5.47E-10 5.41E-10 1.22E-09 1.21E-09 1.22E-09 1.07E-09
  1.07E-09 1.01E-09 1.00E-09 1.06E-09 1.06E-09 4.36E-11 3.18E-11 3.07E-11
  4.18E-10 1.82E-09 2.03E-09 2.01E-09 1.83E-10 3.56E-10 3.50E-10 2.33E-10
  1.15E-10 1.10E-10 7.73E-11 7.02E-11 1.72E-10 1.66E-10 4.98E-11 1.14E-09
  1.14E-09 1.86E-10 1.83E-10 4.46E-11 4.90E-11 1.66E-09 2.11E-09 2.11E-09
  2.04E-09 2.03E-09 2.18E-09 1.23E-09 1.23E-09 1.61E-09 1.63E-09 1.18E-09
  1.17E-09 1.42E-10
   0.1000  0.1000  0.0000    1  2.53824E-09 kpt; spin; max resid(k); each band:
  4.34E-10 5.42E-10 5.38E-10 5.43E-10 1.22E-09 1.22E-09 1.21E-09 9.83E-10
  1.07E-09 1.06E-09 9.99E-10 9.93E-10 1.06E-09 5.78E-11 3.84E-11 3.07E-11
  4.30E-10 2.10E-09 2.02E-09 1.98E-09 3.65E-10 3.56E-10 6.69E-10 3.83E-10
  1.13E-10 1.15E-10 7.83E-11 7.30E-11 1.65E-09 1.04E-09 9.97E-10 2.70E-10
  6.39E-10 6.11E-10 1.83E-10 1.75E-10 5.43E-11 2.54E-09 2.49E-09 2.53E-09
  1.94E-09 2.04E-09 2.07E-09 2.12E-09 1.36E-09 1.36E-09 1.77E-09 1.79E-09
  1.26E-09 3.50E-10
   0.2000  0.1000  0.0000    1  1.51525E-07 kpt; spin; max resid(k); each band:
  4.25E-10 5.43E-10 5.42E-10 5.46E-10 1.20E-09 1.21E-09 1.20E-09 9.78E-10
  1.07E-09 8.65E-10 9.96E-10 1.06E-09 9.66E-10 9.51E-11 6.83E-11 3.43E-11
  4.70E-10 2.17E-09 2.01E-09 2.57E-09 3.85E-10 7.88E-10 1.23E-09 8.01E-10
  1.36E-10 3.36E-11 2.05E-11 7.37E-11 2.07E-09 2.15E-09 1.98E-09 5.31E-10
  5.72E-10 5.91E-10 4.86E-10 1.68E-10 7.73E-11 2.95E-09 2.93E-09 2.94E-09
  1.67E-09 1.77E-09 1.89E-09 2.82E-09 1.77E-09 2.82E-09 1.78E-09 1.67E-09
  2.20E-09 1.52E-07
   0.3000  0.1000  0.0000    1  2.85242E-06 kpt; spin; max resid(k); each band:
  4.54E-10 5.36E-10 5.44E-10 5.50E-10 1.19E-09 1.18E-09 1.18E-09 1.02E-09
  1.08E-09 7.62E-10 8.64E-10 1.03E-09 8.97E-10 5.19E-10 4.81E-11 1.32E-10
  6.09E-10 2.35E-09 2.33E-09 3.01E-09 4.29E-10 1.29E-09 1.93E-09 2.89E-11
  8.66E-10 3.22E-11 2.28E-09 2.30E-09 1.32E-10 2.79E-09 7.51E-11 8.19E-10
  8.15E-10 8.22E-10 9.19E-10 9.51E-11 1.53E-10 2.39E-09 2.89E-09 3.08E-09
  1.44E-09 1.62E-09 3.13E-09 2.23E-09 3.49E-09 1.64E-09 2.61E-09 2.03E-09
  2.66E-09 2.85E-06
   0.4000  0.1000  0.0000    1  2.09172E-07 kpt; spin; max resid(k); each band:
  4.47E-10 5.18E-10 5.38E-10 5.52E-10 1.16E-09 1.16E-09 1.13E-09 1.07E-09
  1.10E-09 7.08E-10 5.76E-10 7.56E-10 9.93E-10 7.49E-10 5.62E-11 2.89E-10
  8.09E-10 2.22E-09 2.90E-09 5.17E-10 3.33E-09 1.73E-09 2.14E-09 2.51E-11
  2.23E-09 2.25E-09 1.01E-09 2.78E-09 5.44E-11 3.78E-10 9.86E-10 9.84E-10
  1.01E-09 1.36E-09 9.71E-11 6.12E-10 1.09E-10 1.37E-10 2.48E-09 1.48E-09
  3.04E-09 1.99E-09 3.04E-09 2.62E-09 3.76E-09 3.29E-09 1.73E-09 2.40E-09
  4.84E-09 2.09E-07
   0.5000  0.1000  0.0000    1  3.67098E-09 kpt; spin; max resid(k); each band:
  4.29E-10 4.49E-10 5.27E-10 5.60E-10 1.10E-09 1.14E-09 1.11E-09 1.15E-09
  6.70E-10 6.67E-10 7.07E-10 7.04E-10 9.00E-10 9.28E-10 4.50E-10 4.64E-10
  1.23E-09 1.22E-09 3.41E-09 3.40E-09 7.12E-10 7.06E-10 2.17E-09 2.02E-09
  2.12E-09 1.98E-09 9.38E-10 9.59E-10 1.10E-09 1.05E-09 1.01E-09 9.81E-10
  1.06E-09 9.70E-10 1.86E-10 1.84E-10 1.17E-10 1.18E-10 1.83E-09 1.88E-09
  2.80E-09 2.97E-09 2.58E-09 2.65E-09 3.66E-09 3.67E-09 1.95E-09 2.03E-09
  2.61E-09 2.92E-09
  -0.4000  0.1000  0.0000    1  2.20977E-07 kpt; spin; max resid(k); each band:
  4.47E-10 5.19E-10 5.38E-10 5.52E-10 1.16E-09 1.16E-09 1.13E-09 1.07E-09
  1.10E-09 7.09E-10 5.77E-10 7.54E-10 9.93E-10 7.50E-10 5.62E-11 2.88E-10
  8.09E-10 2.22E-09 2.90E-09 5.16E-10 3.33E-09 1.73E-09 2.14E-09 2.52E-11
  2.22E-09 2.25E-09 1.00E-09 2.78E-09 5.42E-11 3.77E-10 9.86E-10 9.84E-10
  1.01E-09 1.37E-09 9.75E-11 6.12E-10 1.08E-10 1.37E-10 2.48E-09 1.48E-09
  3.04E-09 1.99E-09 3.04E-09 2.62E-09 3.76E-09 3.28E-09 1.73E-09 2.41E-09
  6.62E-09 2.21E-07
  -0.3000  0.1000  0.0000    1  7.43553E-06 kpt; spin; max resid(k); each band:
  4.54E-10 5.36E-10 5.44E-10 5.50E-10 1.19E-09 1.18E-09 1.18E-09 1.02E-09
  1.08E-09 7.63E-10 8.62E-10 1.03E-09 8.97E-10 5.22E-10 4.87E-11 1.31E-10
  6.08E-10 2.35E-09 2.33E-09 3.01E-09 4.29E-10 1.29E-09 1.93E-09 3.45E-11
  8.65E-10 3.25E-11 2.28E-09 2.30E-09 1.30E-10 2.79E-09 7.54E-11 8.19E-10
  8.14E-10 8.22E-10 9.19E-10 9.48E-11 1.53E-10 2.39E-09 2.89E-09 3.08E-09
  1.44E-09 1.62E-09 3.13E-09 2.23E-09 3.49E-09 1.64E-09 2.60E-09 2.03E-09
  2.66E-09 7.44E-06
  -0.2000  0.1000  0.0000    1  2.45816E-07 kpt; spin; max resid(k); each band:
  4.25E-10 5.43E-10 5.42E-10 5.46E-10 1.20E-09 1.21E-09 1.20E-09 9.80E-10
  1.07E-09 8.65E-10 9.93E-10 1.06E-09 9.67E-10 9.63E-11 6.85E-11 3.31E-11
  4.70E-10 2.17E-09 2.01E-09 2.57E-09 3.85E-10 7.87E-10 1.23E-09 8.02E-10
  1.35E-10 3.32E-11 2.06E-11 7.40E-11 2.07E-09 2.15E-09 1.98E-09 5.31E-10
  5.71E-10 5.90E-10 4.86E-10 1.68E-10 7.68E-11 2.95E-09 2.93E-09 2.94E-09
  1.67E-09 1.77E-09 1.89E-09 2.82E-09 1.77E-09 2.82E-09 1.78E-09 1.66E-09
  2.20E-09 2.46E-07
  -0.1000  0.1000  0.0000    1  2.53010E-09 kpt; spin; max resid(k); each band:
  4.34E-10 5.42E-10 5.37E-10 5.43E-10 1.22E-09 1.22E-09 1.21E-09 9.85E-10
  1.07E-09 1.06E-09 9.97E-10 9.94E-10 1.06E-09 5.91E-11 3.85E-11 2.94E-11
  4.30E-10 2.10E-09 2.02E-09 1.98E-09 3.62E-10 3.59E-10 6.69E-10 3.84E-10
  1.13E-10 1.15E-10 7.83E-11 7.32E-11 1.65E-09 1.03E-09 1.01E-09 2.70E-10
  6.29E-10 6.18E-10 1.78E-10 1.77E-10 5.36E-11 2.52E-09 2.50E-09 2.53E-09
  1.94E-09 2.04E-09 2.08E-09 2.12E-09 1.36E-09 1.36E-09 1.78E-09 1.78E-09
  1.26E-09 3.71E-10
   0.0000  0.2000  0.0000    1  1.84406E-08 kpt; spin; max resid(k); each band:
  4.28E-10 5.32E-10 5.54E-10 5.45E-10 1.21E-09 1.20E-09 1.21E-09 1.08E-09
[...]
                       2.000000  2.000000  2.000000  2.000000  2.000000  2.000000
                       2.000000  2.000000  2.000000  2.000000  2.000000  2.000000
                       2.000000  2.000000  2.000000  2.000000  2.000000  2.000000
                       2.000000  2.000000  2.000000  2.000000  2.000000  2.000000
                       2.000000  2.000000  2.000000  2.000000  2.000000  2.000000
                       2.000000  2.000000  0.000000  0.000000  0.000000  0.000000
                       0.000000  0.000000  0.000000  0.000000  0.000000  0.000000
                       0.000000  0.000000
                       2.000000  2.000000  2.000000  2.000000  2.000000  2.000000
                       2.000000  2.000000  2.000000  2.000000  2.000000  2.000000
                       2.000000  2.000000  2.000000  2.000000  2.000000  2.000000
                       2.000000  2.000000  2.000000  2.000000  2.000000  2.000000
                       2.000000  2.000000  2.000000  2.000000  2.000000  2.000000
                       2.000000  2.000000  2.000000  2.000000  2.000000  2.000000
                       2.000000  2.000000  0.000000  0.000000  0.000000  0.000000
                       0.000000  0.000000  0.000000  0.000000  0.000000  0.000000
                       0.000000  0.000000
                       2.000000  2.000000  2.000000  2.000000  2.000000  2.000000
                       2.000000  2.000000  2.000000  2.000000  2.000000  2.000000
                       2.000000  2.000000  2.000000  2.000000  2.000000  2.000000
                       2.000000  2.000000  2.000000  2.000000  2.000000  2.000000
                       2.000000  2.000000  2.000000  2.000000  2.000000  2.000000
                       2.000000  2.000000  2.000000  2.000000  2.000000  2.000000
                       2.000000  2.000000  0.000000  0.000000  0.000000  0.000000
                       0.000000  0.000000  0.000000  0.000000  0.000000  0.000000
                       0.000000  0.000000
                       2.000000  2.000000  2.000000  2.000000  2.000000  2.000000
                       2.000000  2.000000  2.000000  2.000000  2.000000  2.000000
                       2.000000  2.000000  2.000000  2.000000  2.000000  2.000000
                       2.000000  2.000000  2.000000  2.000000  2.000000  2.000000
                       2.000000  2.000000  2.000000  2.000000  2.000000  2.000000
                       2.000000  2.000000  2.000000  2.000000  2.000000  2.000000
                       2.000000  2.000000  0.000000  0.000000  0.000000  0.000000
                       0.000000  0.000000  0.000000  0.000000  0.000000  0.000000
                       0.000000  0.000000
                       2.000000  2.000000  2.000000  2.000000  2.000000  2.000000
                       2.000000  2.000000  2.000000  2.000000  2.000000  2.000000
                       2.000000  2.000000  2.000000  2.000000  2.000000  2.000000
                       2.000000  2.000000  2.000000  2.000000  2.000000  2.000000
                       2.000000  2.000000  2.000000  2.000000  2.000000  2.000000
                       2.000000  2.000000  2.000000  2.000000  2.000000  2.000000
                       2.000000  2.000000  0.000000  0.000000  0.000000  0.000000
                       0.000000  0.000000  0.000000  0.000000  0.000000  0.000000
                       0.000000  0.000000
                       2.000000  2.000000  2.000000  2.000000  2.000000  2.000000
                       2.000000  2.000000  2.000000  2.000000  2.000000  2.000000
                       2.000000  2.000000  2.000000  2.000000  2.000000  2.000000
                       2.000000  2.000000  2.000000  2.000000  2.000000  2.000000
                       2.000000  2.000000  2.000000  2.000000  2.000000  2.000000
                       2.000000  2.000000  2.000000  2.000000  2.000000  2.000000
                       2.000000  2.000000  0.000000  0.000000  0.000000  0.000000
                       0.000000  0.000000  0.000000  0.000000  0.000000  0.000000
                       0.000000  0.000000
                       2.000000  2.000000  2.000000  2.000000  2.000000  2.000000
                       2.000000  2.000000  2.000000  2.000000  2.000000  2.000000
                       2.000000  2.000000  2.000000  2.000000  2.000000  2.000000
                       2.000000  2.000000  2.000000  2.000000  2.000000  2.000000
                       2.000000  2.000000  2.000000  2.000000  2.000000  2.000000
                       2.000000  2.000000  2.000000  2.000000  2.000000  2.000000
                       2.000000  1.999427  1.999427  0.000000  0.000000  0.000000
                       0.000000  0.000000  0.000000  0.000000  0.000000  0.000000
                       0.000000  0.000000
                       2.000000  2.000000  2.000000  2.000000  2.000000  2.000000
                       2.000000  2.000000  2.000000  2.000000  2.000000  2.000000
                       2.000000  2.000000  2.000000  2.000000  2.000000  2.000000
                       2.000000  2.000000  2.000000  2.000000  2.000000  2.000000
                       2.000000  2.000000  2.000000  2.000000  2.000000  2.000000
                       2.000000  2.000000  2.000000  2.000000  2.000000  2.000000
                       2.000000  2.000000  0.000000  0.000000  0.000000  0.000000
                       0.000000  0.000000  0.000000  0.000000  0.000000  0.000000
                       0.000000  0.000000
                       2.000000  2.000000  2.000000  2.000000  2.000000  2.000000
                       2.000000  2.000000  2.000000  2.000000  2.000000  2.000000
                       2.000000  2.000000  2.000000  2.000000  2.000000  2.000000
                       2.000000  2.000000  2.000000  2.000000  2.000000  2.000000
                       2.000000  2.000000  2.000000  2.000000  2.000000  2.000000
                       2.000000  2.000000  2.000000  2.000000  2.000000  2.000000
                       2.000000  1.999427  1.999427  0.000000  0.000000  0.000000
                       0.000000  0.000000  0.000000  0.000000  0.000000  0.000000
                       0.000000  0.000000
                       2.000000  2.000000  2.000000  2.000000  2.000000  2.000000
                       2.000000  2.000000  2.000000  2.000000  2.000000  2.000000
                       2.000000  2.000000  2.000000  2.000000  2.000000  2.000000
                       2.000000  2.000000  2.000000  2.000000  2.000000  2.000000
                       2.000000  2.000000  2.000000  2.000000  2.000000  2.000000
                       2.000000  2.000000  2.000000  2.000000  2.000000  2.000000
                       2.000000  2.000000  0.000000  0.000000  0.000000  0.000000
                       0.000000  0.000000  0.000000  0.000000  0.000000  0.000000
                       0.000000  0.000000
                       2.000000  2.000000  2.000000  2.000000  2.000000  2.000000
                       2.000000  2.000000  2.000000  2.000000  2.000000  2.000000
                       2.000000  2.000000  2.000000  2.000000  2.000000  2.000000
                       2.000000  2.000000  2.000000  2.000000  2.000000  2.000000
                       2.000000  2.000000  2.000000  2.000000  2.000000  2.000000
                       2.000000  2.000000  2.000000  2.000000  2.000000  2.000000
                       2.000000  2.000000  0.000000  0.000000  0.000000  0.000000
                       0.000000  0.000000  0.000000  0.000000  0.000000  0.000000
                       0.000000  0.000000
                       2.000000  2.000000  2.000000  2.000000  2.000000  2.000000
                       2.000000  2.000000  2.000000  2.000000  2.000000  2.000000
                       2.000000  2.000000  2.000000  2.000000  2.000000  2.000000
                       2.000000  2.000000  2.000000  2.000000  2.000000  2.000000
                       2.000000  2.000000  2.000000  2.000000  2.000000  2.000000
                       2.000000  2.000000  2.000000  2.000000  2.000000  2.000000
                       2.000000  2.000000  0.000000  0.000000  0.000000  0.000000
                       0.000000  0.000000  0.000000  0.000000  0.000000  0.000000
                       0.000000  0.000000
                       2.000000  2.000000  2.000000  2.000000  2.000000  2.000000
                       2.000000  2.000000  2.000000  2.000000  2.000000  2.000000
                       2.000000  2.000000  2.000000  2.000000  2.000000  2.000000
                       2.000000  2.000000  2.000000  2.000000  2.000000  2.000000
                       2.000000  2.000000  2.000000  2.000000  2.000000  2.000000
                       2.000000  2.000000  2.000000  2.000000  2.000000  2.000000
                       2.000000  2.000000  0.000000  0.000000  0.000000  0.000000
                       0.000000  0.000000  0.000000  0.000000  0.000000  0.000000
                       0.000000  0.000000
                       2.000000  2.000000  2.000000  2.000000  2.000000  2.000000
                       2.000000  2.000000  2.000000  2.000000  2.000000  2.000000
                       2.000000  2.000000  2.000000  2.000000  2.000000  2.000000
                       2.000000  2.000000  2.000000  2.000000  2.000000  2.000000
                       2.000000  2.000000  2.000000  2.000000  2.000000  2.000000
                       2.000000  2.000000  2.000000  2.000000  2.000000  2.000000
                       2.000000  2.000000  0.000000  0.000000  0.000000  0.000000
                       0.000000  0.000000  0.000000  0.000000  0.000000  0.000000
                       0.000000  0.000000
                       2.000000  2.000000  2.000000  2.000000  2.000000  2.000000
                       2.000000  2.000000  2.000000  2.000000  2.000000  2.000000
                       2.000000  2.000000  2.000000  2.000000  2.000000  2.000000
                       2.000000  2.000000  2.000000  2.000000  2.000000  2.000000
                       2.000000  2.000000  2.000000  2.000000  2.000000  2.000000
                       2.000000  2.000000  2.000000  2.000000  2.000000  2.000000
                       2.000000  2.000000  0.000000  0.000000  0.000000  0.000000
                       0.000000  0.000000  0.000000  0.000000  0.000000  0.000000
                       0.000000  0.000000
                       2.000000  2.000000  2.000000  2.000000  2.000000  2.000000
                       2.000000  2.000000  2.000000  2.000000  2.000000  2.000000
                       2.000000  2.000000  2.000000  2.000000  2.000000  2.000000
                       2.000000  2.000000  2.000000  2.000000  2.000000  2.000000
                       2.000000  2.000000  2.000000  2.000000  2.000000  2.000000
                       2.000000  2.000000  2.000000  2.000000  2.000000  2.000000
                       2.000000  2.000000  0.000000  0.000000  0.000000  0.000000
                       0.000000  0.000000  0.000000  0.000000  0.000000  0.000000
                       0.000000  0.000000
                       prtocc : prtvol=0, do not print more k-points.
           occopt           3
           prtden           0
            prtwf           0
            rprim      7.8825913395E+00  0.0000000000E+00  0.0000000000E+00
                       0.0000000000E+00  7.8825913395E+00  0.0000000000E+00
                       0.0000000000E+00  0.0000000000E+00  7.8825913395E+00
          spgroup           1
           strten      8.7231868118E-05  8.7206652774E-05  8.7204032202E-05
                      -8.9257775917E-09 -9.0681506628E-09  1.5951922656E-09
           toldfe      5.00000000E-05 Hartree
           tsmear      1.00000000E-03 Hartree
            typat      1  1  1  1
              wtk        0.00100    0.00200    0.00200    0.00200    0.00200    0.00100
                         0.00200    0.00200    0.00200    0.00200    0.00200    0.00200
                         0.00200    0.00200    0.00200    0.00200    0.00200    0.00200
                         0.00200    0.00200    0.00200    0.00200    0.00200    0.00200
                         0.00200    0.00200    0.00200    0.00200    0.00200    0.00200
                         0.00200    0.00200    0.00200    0.00200    0.00200    0.00200
                         0.00200    0.00200    0.00200    0.00200    0.00200    0.00200
                         0.00200    0.00200    0.00200    0.00200    0.00100    0.00200
                         0.00200    0.00200
                       outvars : Printing only first  50 k-points.
           xangst      0.0000000000E+00  0.0000000000E+00  0.0000000000E+00
                       0.0000000000E+00  2.0856438408E+00  2.0856438408E+00
                       2.0856438408E+00  0.0000000000E+00  2.0856438408E+00
                       2.0856438408E+00  2.0856438408E+00  0.0000000000E+00
            xcart      0.0000000000E+00  0.0000000000E+00  0.0000000000E+00
                       0.0000000000E+00  3.9412956698E+00  3.9412956698E+00
                       3.9412956698E+00  0.0000000000E+00  3.9412956698E+00
                       3.9412956698E+00  3.9412956698E+00  0.0000000000E+00
             xred      0.0000000000E+00  0.0000000000E+00  0.0000000000E+00
                       0.0000000000E+00  5.0000000000E-01  5.0000000000E-01
                       5.0000000000E-01  0.0000000000E+00  5.0000000000E-01
                       5.0000000000E-01  5.0000000000E-01  0.0000000000E+00
            znucl       79.00000

================================================================================
  

================================================================================

 Suggested references for the acknowledgment of ABINIT usage.

 The users of ABINIT have little formal obligations with respect to the ABINIT group
 (those specified in the GNU General Public License, http://www.gnu.org/copyleft/gpl.txt).
 However, it is common practice in the scientific literature,
 to acknowledge the efforts of people that have made the research possible.
 In this spirit, please find below suggested citations of work written by ABINIT developers,
 corresponding to implementations inside of ABINIT that you have used in the present run.
 Note also that it will be of great value to readers of publications presenting these results,
 to read papers enabling them to understand the theoretical formalism and details
 of the ABINIT implementation.
 For information on why they are suggested, see also https://docs.abinit.org/theory/acknowledgments.
-
- [1] The Abinit project: Impact, environment and recent developments.
- Computer Phys. Comm. 248, 107042 (2020).
- X.Gonze, B. Amadon, G. Antonius, F.Arnardi, L.Baguet, J.-M.Beuken,
- J.Bieder, F.Bottin, J.Bouchet, E.Bousquet, N.Brouwer, F.Bruneval,
- G.Brunin, T.Cavignac, J.-B. Charraud, Wei Chen, M.Cote, S.Cottenier,
- J.Denier, G.Geneste, Ph.Ghosez, M.Giantomassi, Y.Gillet, O.Gingras,
- D.R.Hamann, G.Hautier, Xu He, N.Helbig, N.Holzwarth, Y.Jia, F.Jollet,
- W.Lafargue-Dit-Hauret, K.Lejaeghere, M.A.L.Marques, A.Martin, C.Martins,
- H.P.C. Miranda, F.Naccarato, K. Persson, G.Petretto, V.Planes, Y.Pouillon,
- S.Prokhorenko, F.Ricci, G.-M.Rignanese, A.H.Romero, M.M.Schmitt, M.Torrent,
- M.J.van Setten, B.Van Troeye, M.J.Verstraete, G.Zerah and J.W.Zwanzig
- Comment: the fifth generic paper describing the ABINIT project.
- Note that a version of this paper, that is not formatted for Computer Phys. Comm. 
- is available at https://www.abinit.org/sites/default/files/ABINIT20.pdf .
- The licence allows the authors to put it on the Web.
- DOI and bibtex: see https://docs.abinit.org/theory/bibliography/#gonze2020
-
- [2] Optimized norm-conserving Vanderbilt pseudopotentials.
- D.R. Hamann, Phys. Rev. B 88, 085117 (2013).
- Comment: Some pseudopotential generated using the ONCVPSP code were used.
- DOI and bibtex: see https://docs.abinit.org/theory/bibliography/#hamann2013
-
- [3] ABINIT: Overview, and focus on selected capabilities
- J. Chem. Phys. 152, 124102 (2020).
- A. Romero, D.C. Allan, B. Amadon, G. Antonius, T. Applencourt, L.Baguet,
- J.Bieder, F.Bottin, J.Bouchet, E.Bousquet, F.Bruneval,
- G.Brunin, D.Caliste, M.Cote,
- J.Denier, C. Dreyer, Ph.Ghosez, M.Giantomassi, Y.Gillet, O.Gingras,
- D.R.Hamann, G.Hautier, F.Jollet, G. Jomard,
- A.Martin, 
- H.P.C. Miranda, F.Naccarato, G.Petretto, N.A. Pike, V.Planes,
- S.Prokhorenko, T. Rangel, F.Ricci, G.-M.Rignanese, M.Royo, M.Stengel, M.Torrent,
- M.J.van Setten, B.Van Troeye, M.J.Verstraete, J.Wiktor, J.W.Zwanziger, and X.Gonze.
- Comment: a global overview of ABINIT, with focus on selected capabilities .
- Note that a version of this paper, that is not formatted for J. Chem. Phys 
- is available at https://www.abinit.org/sites/default/files/ABINIT20_JPC.pdf .
- The licence allows the authors to put it on the Web.
- DOI and bibtex: see https://docs.abinit.org/theory/bibliography/#romero2020
-
- [4] Recent developments in the ABINIT software package.
- Computer Phys. Comm. 205, 106 (2016).
- X.Gonze, F.Jollet, F.Abreu Araujo, D.Adams, B.Amadon, T.Applencourt,
- C.Audouze, J.-M.Beuken, J.Bieder, A.Bokhanchuk, E.Bousquet, F.Bruneval
- D.Caliste, M.Cote, F.Dahm, F.Da Pieve, M.Delaveau, M.Di Gennaro,
- B.Dorado, C.Espejo, G.Geneste, L.Genovese, A.Gerossier, M.Giantomassi,
- Y.Gillet, D.R.Hamann, L.He, G.Jomard, J.Laflamme Janssen, S.Le Roux,
- A.Levitt, A.Lherbier, F.Liu, I.Lukacevic, A.Martin, C.Martins,
- M.J.T.Oliveira, S.Ponce, Y.Pouillon, T.Rangel, G.-M.Rignanese,
- A.H.Romero, B.Rousseau, O.Rubel, A.A.Shukri, M.Stankovski, M.Torrent,
- M.J.Van Setten, B.Van Troeye, M.J.Verstraete, D.Waroquier, J.Wiktor,
- B.Xu, A.Zhou, J.W.Zwanziger.
- Comment: the fourth generic paper describing the ABINIT project.
- Note that a version of this paper, that is not formatted for Computer Phys. Comm. 
- is available at https://www.abinit.org/sites/default/files/ABINIT16.pdf .
- The licence allows the authors to put it on the Web.
- DOI and bibtex: see https://docs.abinit.org/theory/bibliography/#gonze2016
-
- And optionally:
-
- [5] ABINIT: First-principles approach of materials and nanosystem properties.
- Computer Phys. Comm. 180, 2582-2615 (2009).
- X. Gonze, B. Amadon, P.-M. Anglade, J.-M. Beuken, F. Bottin, P. Boulanger, F. Bruneval,
- D. Caliste, R. Caracas, M. Cote, T. Deutsch, L. Genovese, Ph. Ghosez, M. Giantomassi
- S. Goedecker, D.R. Hamann, P. Hermet, F. Jollet, G. Jomard, S. Leroux, M. Mancini, S. Mazevet,
- M.J.T. Oliveira, G. Onida, Y. Pouillon, T. Rangel, G.-M. Rignanese, D. Sangalli, R. Shaltaf,
- M. Torrent, M.J. Verstraete, G. Zerah, J.W. Zwanziger
- Comment: the third generic paper describing the ABINIT project.
- Note that a version of this paper, that is not formatted for Computer Phys. Comm. 
- is available at https://www.abinit.org/sites/default/files/ABINIT_CPC_v10.pdf .
- The licence allows the authors to put it on the Web.
- DOI and bibtex: see https://docs.abinit.org/theory/bibliography/#gonze2009
 Proc.   0 individual time (sec): cpu=       4708.2  wall=       4720.6

 Calculation completed.
.Delivered   0 WARNINGs and   0 COMMENTs to log file.

--- !FinalSummary
program: abinit
version: 9.6.2
start_datetime: Tue Dec 20 23:42:43 2022
end_datetime: Wed Dec 21 01:01:24 2022
overall_cpu_time:       56506.5
overall_wall_time:       56646.7
exit_requested_by_user: no 
timelimit: 0
pseudos: 
    Au  : 1d1b1db83cd4d75736eebb3c68f3fb0e
usepaw: 0
mpi_procs: 12
omp_threads: 1
num_warnings: 0
num_comments: 0
...
---------------------------------------
Begin Slurm Epilog: Dec-21-2022 01:12:24
Job ID:        299877
Array Job ID:  _4294967294
User ID:       bzhang376
Account:       hive-phanish6
Job name:      AbiAuNo666
Resources:     cpu=12,mem=96G,node=1
Rsrc Used:     cput=15:45:00,vmem=6300K,walltime=01:18:45,mem=5948K,energy_used=0
Partition:     hive
Nodes:         atl1-1-01-017-31-2
---------------------------------------
