:MDSTEP: 20
:R(Bohr):
  3.8057953369E+01   3.5177771289E-02   3.0681222441E+01
  4.1031099331E+00   3.7904065014E+01   3.5070985031E+01
  3.8151877035E+01   3.3691207807E+00   3.4364140466E+01
  3.7974648759E+01   3.8051284121E+01   2.2828042973E+01
  3.6101337409E+00   2.7690828340E-01   2.6654592759E+01
  7.1464749892E+00   2.3178950968E-01   3.0293480537E+01
  1.0710418086E+01   3.8208811335E+01   3.4094872474E+01
  3.8059158967E+01   3.7250136777E+00   2.6813564967E+01
  3.8050688641E+00   3.7225391023E+00   3.0252461875E+01
  7.2816627797E+00   3.5474280563E+00   3.4324892983E+01
  3.8146885654E+01   7.6859355592E+00   3.0568665539E+01
  3.8944397236E+00   7.2390581757E+00   3.4709669805E+01
  2.3477736247E-02   1.1075559660E+01   3.4914788274E+01
  5.5481972544E-01   3.8199871919E+01   1.5094564408E+01
  3.0174533780E+00   4.2881067437E-01   1.8802189847E+01
  7.7113857041E+00   3.7636101463E+01   2.2638186606E+01
  1.1169514758E+01   3.1201425665E-01   2.6594936095E+01
  1.5147123604E+01   3.8031576249E+01   3.0174299282E+01
  1.8981797161E+01   3.7984364377E+01   3.4116117328E+01
  3.8118296327E+01   4.4186981304E+00   1.9010974917E+01
  3.9212987349E+00   3.5900662450E+00   2.2998848215E+01
  8.2566879153E+00   3.8191225660E+00   2.6730867988E+01
  1.1347414563E+01   4.2510178735E+00   3.0344707461E+01
  1.5347283862E+01   4.0938477511E+00   3.4558449588E+01
  1.7214250752E-01   7.9088868024E+00   2.2989515986E+01
  4.1423498530E+00   7.0902735864E+00   2.6220315099E+01
  7.1025868371E+00   7.3051317362E+00   3.0889914172E+01
  1.1132992978E+01   7.0039422529E+00   3.4967912069E+01
  3.7791942887E+01   1.1198767992E+01   2.7298295206E+01
  4.1164406062E+00   1.1691031011E+01   3.0984984454E+01
  7.4775549739E+00   1.2171642975E+01   3.4384227238E+01
  3.8161189436E+01   1.5179688746E+01   3.0241207388E+01
  4.1772868255E+00   1.5844574607E+01   3.3924620340E+01
  3.7890382278E+01   1.9038945279E+01   3.4185880258E+01
  3.8076539910E+01   4.3646102307E-01   7.8043836803E+00
  3.7890732169E+00   3.8127332095E+01   1.1124524139E+01
  7.8351684278E+00   2.6622341960E-01   1.5271637409E+01
  1.1878238352E+01   2.9339543911E-01   1.8979936169E+01
  1.4827254054E+01   3.7940138163E+01   2.2911621612E+01
  1.9100993009E+01   3.7875222637E+01   2.7055180434E+01
  2.3239199294E+01   1.2155849627E-01   3.0397221757E+01
  2.6928445568E+01   1.2819924296E-01   3.4362075760E+01
  3.8178805582E+01   3.6816559572E+00   1.1513068859E+01
  4.3829696833E+00   3.9633523861E+00   1.5726939771E+01
  7.5343879033E+00   3.3622293124E+00   1.9752458767E+01
  1.1250870201E+01   3.5620873209E+00   2.2919462784E+01
  1.5545063951E+01   3.9801827750E+00   2.7065427282E+01
  1.9044000506E+01   3.6710830010E+00   3.0881808348E+01
  2.3265855351E+01   4.1405646305E+00   3.4789947253E+01
  3.7767817426E+01   7.4616192358E+00   1.5225977818E+01
  3.5967147721E+00   7.5536002974E+00   1.8977742056E+01
  7.9356478163E+00   7.5265287981E+00   2.3291137438E+01
  1.1490605620E+01   8.1544047452E+00   2.6611399385E+01
  1.4902596710E+01   7.7360805724E+00   3.0293904812E+01
  1.9108781137E+01   7.3160720298E+00   3.4725155949E+01
  3.7877273881E+01   1.1125352939E+01   1.9225986138E+01
  4.0172060101E+00   1.1575074514E+01   2.3226151289E+01
  7.0377037222E+00   1.1479951931E+01   2.6995154241E+01
  1.1549153881E+01   1.1388529739E+01   3.0421722503E+01
  1.5828304365E+01   1.1104362204E+01   3.4359974857E+01
  3.7863610712E+01   1.5133630441E+01   2.3285053644E+01
  3.6344301960E+00   1.5440205306E+01   2.6808950184E+01
  7.7625528045E+00   1.5648312548E+01   3.0112327680E+01
  1.1516707936E+01   1.4566370863E+01   3.4481505863E+01
  3.8075709481E+01   1.9239756470E+01   2.6829141565E+01
  4.1257395131E+00   1.9606403384E+01   3.0607295969E+01
  7.9693659361E+00   1.8979588096E+01   3.4287694218E+01
  1.9828174369E-01   2.2884827397E+01   3.0480373234E+01
  4.2888009334E+00   2.3290675088E+01   3.4832113540E+01
  3.8013851419E+01   2.6392581759E+01   3.4616760206E+01
  3.8240547541E+01   3.7985700187E+01   3.7852860664E+01
  3.2275250162E+00   6.9053184902E-02   4.0311884893E+00
  7.5617440402E+00   9.7890633691E-02   7.1564566997E+00
  1.1687881474E+01   1.6198665441E-01   1.1546543571E+01
  1.5545882050E+01   3.8062231701E+01   1.5752464862E+01
  1.8648633304E+01   6.3473966400E-02   1.9315525583E+01
  2.3193804455E+01   3.8053988661E+01   2.3100230013E+01
  2.6782616629E+01   4.8564114429E-02   2.6610642741E+01
  3.1053761843E+01   1.3568509673E-03   3.0810511098E+01
  3.4416346177E+01   3.7951337168E+01   3.4734835923E+01
  3.8530299713E-01   4.2468574968E+00   3.6652212085E+00
  3.6789137515E+00   3.7600507072E+00   8.1287262571E+00
  8.0215640180E+00   3.8877587147E+00   1.1486437533E+01
  1.1454040767E+01   3.6129283685E+00   1.5185773733E+01
  1.5083060676E+01   3.9965015250E+00   1.9059549955E+01
  1.9010459748E+01   3.5803622005E+00   2.2843469572E+01
  2.2961328878E+01   3.8170601366E+00   2.6416567311E+01
  2.7307949877E+01   3.6344664649E+00   3.0114195344E+01
  3.0822001189E+01   3.6891359884E+00   3.4243182135E+01
  1.3705307835E-01   7.8765714414E+00   7.6143424401E+00
  3.4893837284E+00   7.6310265313E+00   1.1525058500E+01
  7.8467703776E+00   7.7166469375E+00   1.5630611143E+01
  1.1491533913E+01   7.8549084414E+00   1.8901252523E+01
  1.5473166108E+01   7.0807538406E+00   2.3075090018E+01
  1.9338914239E+01   7.1451007199E+00   2.6902364557E+01
  2.2744738870E+01   7.3388956099E+00   3.0833581169E+01
  2.7067577334E+01   7.1633770060E+00   3.4451184952E+01
  1.4014427178E-01   1.1495955017E+01   1.1778142237E+01
  3.7244443697E+00   1.1221586064E+01   1.5869391356E+01
  7.4442887050E+00   1.0915315994E+01   1.9152390322E+01
  1.1408877097E+01   1.1587441944E+01   2.2892974054E+01
  1.5582968878E+01   1.1562598777E+01   2.7130300290E+01
  1.9624816152E+01   1.1075294843E+01   3.0304975675E+01
  2.2378756172E+01   1.1073389970E+01   3.4236317765E+01
  2.3132922705E-01   1.5352283747E+01   1.5425853680E+01
  4.0240873158E+00   1.6014147694E+01   1.8559129762E+01
  7.3072017332E+00   1.5754964898E+01   2.3110831865E+01
  1.1970435889E+01   1.5637110385E+01   2.7303682737E+01
  1.5475144373E+01   1.5276106764E+01   3.1058950592E+01
  1.9635960528E+01   1.5952547893E+01   3.4759677649E+01
  3.7682274515E+01   1.9096291102E+01   1.8967747618E+01
  3.2372381235E+00   1.9154721038E+01   2.2789809773E+01
  8.0020339614E+00   1.9392535880E+01   2.6867190632E+01
  1.1774929058E+01   1.9073270150E+01   3.0681381859E+01
  1.4808431808E+01   1.8850416677E+01   3.4134917050E+01
  1.0762126137E-01   2.3423755246E+01   2.2944091781E+01
  3.9537127493E+00   2.2530146710E+01   2.6336927651E+01
  7.9333223791E+00   2.2945133957E+01   3.0534780725E+01
  1.1387666179E+01   2.2930042991E+01   3.4279415173E+01
  3.8231524769E+01   2.6762159816E+01   2.6689386165E+01
  3.1864142026E+00   2.6629253508E+01   3.0473830616E+01
  6.8615629346E+00   2.7365478489E+01   3.4146438424E+01
  3.7760611415E+01   3.0084718947E+01   3.1297049161E+01
  3.8442756446E+00   3.0806013654E+01   3.4689237425E+01
  3.8211286980E+01   3.4457020233E+01   3.4386717057E+01
  7.6623286198E+00   3.7956939711E+01   3.4917628264E-01
  1.1520773414E+01   3.8163509479E+01   4.0034870864E+00
  1.5590880856E+01   3.8070451240E-01   7.6018963892E+00
  1.8894319796E+01   9.4271579857E-02   1.1663460006E+01
  2.3001120338E+01   3.8147242994E+01   1.5267699868E+01
  2.7080002023E+01   3.7991902370E+01   1.8785391747E+01
  3.1284866658E+01   3.8239026663E+01   2.2960241472E+01
  3.4404139146E+01   2.2081797048E-01   2.6946490158E+01
  3.5173856780E+00   3.6197476198E+00   3.8071470409E+01
  7.9223711897E+00   4.0418174945E+00   3.9399618389E+00
  1.1476460134E+01   3.6289822438E+00   7.4910475959E+00
  1.5698378145E+01   3.8316498430E+00   1.2025445888E+01
  1.9248802663E+01   3.7297607546E+00   1.5488740825E+01
  2.3153517846E+01   3.4526638582E+00   1.9547324913E+01
  2.6657759207E+01   3.4757165360E+00   2.2951980381E+01
  3.0890095813E+01   3.5459037238E+00   2.6373042965E+01
  3.4229492110E+01   4.2799547080E+00   3.0700959880E+01
  3.7928155340E+01   7.3972918186E+00   8.7639654623E-02
  3.6521001097E+00   7.6254394109E+00   4.0067784425E+00
  7.1978179672E+00   7.9801976079E+00   7.9365369145E+00
  1.1447906976E+01   7.3679643610E+00   1.1827781140E+01
  1.5365307724E+01   7.1226438882E+00   1.5490774970E+01
  1.9289785330E+01   7.3751765519E+00   1.9183020524E+01
  2.2822770636E+01   7.8806792788E+00   2.3292352898E+01
  2.6469292147E+01   7.6087253634E+00   2.6548062741E+01
  3.0386828955E+01   7.5825194565E+00   3.0765639959E+01
  3.4759533155E+01   7.2491226691E+00   3.4712091059E+01
  3.0781517421E-01   1.1296559930E+01   4.1185785878E+00
  3.5365360937E+00   1.1255776372E+01   7.5812510711E+00
  7.4822887636E+00   1.2086540780E+01   1.1269840805E+01
  1.1762306606E+01   1.1165626730E+01   1.5122484750E+01
  1.4981048397E+01   1.1415405434E+01   1.8866319894E+01
  1.9259492184E+01   1.0998547263E+01   2.2996346944E+01
  2.3291290469E+01   1.1538952472E+01   2.6690668789E+01
  2.6970312203E+01   1.1211091452E+01   3.0657626161E+01
  3.0346862213E+01   1.1556930297E+01   3.3930117350E+01
  3.2615199483E-01   1.5574674825E+01   7.1669706190E+00
  3.6782031913E+00   1.5001384322E+01   1.1499285737E+01
  8.1281187946E+00   1.5523206355E+01   1.5286967506E+01
  1.1305067290E+01   1.4885114786E+01   1.8781576332E+01
  1.4716475497E+01   1.5492865350E+01   2.3086254267E+01
  1.8662392385E+01   1.5722069642E+01   2.6962823756E+01
  2.2828224089E+01   1.5116907940E+01   3.0617244388E+01
  2.6949955477E+01   1.5534718264E+01   3.4182285076E+01
  7.0002395452E-02   1.8903493020E+01   1.0940579391E+01
  3.5111466728E+00   1.9416838109E+01   1.5097055957E+01
  8.0239045606E+00   1.8988624491E+01   1.8973304571E+01
  1.1512240307E+01   1.9089011339E+01   2.2635780760E+01
  1.5367914103E+01   1.9346630088E+01   2.6033239362E+01
  1.9079253513E+01   1.9257071055E+01   3.0704177313E+01
  2.3192713628E+01   1.9546048829E+01   3.4649992339E+01
  3.8186720947E+01   2.2752934645E+01   1.5205498415E+01
  3.4301025703E+00   2.2648486838E+01   1.9145458548E+01
  7.3316396632E+00   2.3210731746E+01   2.2811607276E+01
  1.1217853543E+01   2.3350296415E+01   2.6928701525E+01
  1.5330326434E+01   2.3366202185E+01   3.0724335744E+01
  1.8914688999E+01   2.3012971018E+01   3.4473052056E+01
  1.9314200148E-01   2.6995479297E+01   1.8796052264E+01
  3.2965422309E+00   2.7127349089E+01   2.2970504459E+01
  7.5892412636E+00   2.6787269675E+01   2.7147759138E+01
  1.1795551602E+01   2.6878342800E+01   3.0299394485E+01
  1.4960463321E+01   2.6912414345E+01   3.5034369449E+01
  3.8063881277E+01   3.0804456178E+01   2.3416646290E+01
  3.7019483593E+00   3.0689317713E+01   2.6760190024E+01
  7.7186930469E+00   3.0766480135E+01   3.0817824147E+01
  1.1123266750E+01   3.0050038602E+01   3.4791329826E+01
  3.7689300316E+01   3.4805461527E+01   2.6596545369E+01
  3.8911898693E+00   3.4599040574E+01   3.0637507860E+01
  7.9629304215E+00   3.4134563115E+01   3.4144451007E+01
  1.5580983607E+01   3.8061569012E+01   1.9140638399E-01
  1.9202349600E+01   3.8204732950E+01   3.8602901698E+00
  2.2562861190E+01   3.9264380513E-02   7.5817674165E+00
  2.6440976991E+01   3.6824732274E-01   1.1263323488E+01
  3.1025234989E+01   3.8053822518E+01   1.5465033395E+01
  3.4908688398E+01   9.5929020510E-03   1.9193934875E+01
  1.2037340033E+01   3.3529719766E+00   2.0422920126E-01
  1.5347168762E+01   3.4129041428E+00   4.0256358894E+00
  1.9361360894E+01   3.7504817636E+00   7.9805554906E+00
  2.3213666305E+01   3.9125304170E+00   1.1489190733E+01
  2.6711965873E+01   3.5739086133E+00   1.5175848750E+01
  3.0162482165E+01   3.7496349017E+00   1.9103235507E+01
  3.4237206207E+01   4.1950425708E+00   2.2558620387E+01
  7.6529956163E+00   7.8103528677E+00   5.5037631341E-01
  1.2226898768E+01   7.4900344495E+00   3.5434844628E+00
  1.5698304039E+01   7.9502397003E+00   8.1919646514E+00
  1.9240909785E+01   7.4034389447E+00   1.1883548548E+01
  2.3202673690E+01   7.5882969446E+00   1.4792366761E+01
  2.6221443646E+01   7.3843333429E+00   1.8692907912E+01
  3.0328335245E+01   7.9335306053E+00   2.2643825991E+01
  3.4063455032E+01   7.8793432709E+00   2.6456152743E+01
  3.8402574693E+00   1.1594453940E+01   3.8026995770E+01
  6.9668308007E+00   1.1611717986E+01   4.0180228474E+00
  1.1729062965E+01   1.1089374286E+01   8.1962657507E+00
  1.5775250297E+01   1.1552907483E+01   1.1524127196E+01
  1.8957561781E+01   1.1256931316E+01   1.5015697714E+01
  2.2765900424E+01   1.1427546906E+01   1.9199798909E+01
  2.6536954165E+01   1.1587005255E+01   2.2662858301E+01
  3.0029903102E+01   1.1571167419E+01   2.6874422231E+01
  3.4857253519E+01   1.1553274544E+01   3.1187857702E+01
  6.6064436825E-03   1.4999204268E+01   3.7789009479E+01
  3.9235436886E+00   1.5320844496E+01   3.6743971549E+00
  7.7478017548E+00   1.5531209822E+01   7.5010764875E+00
  1.1762013855E+01   1.5170738407E+01   1.1703500002E+01
  1.5628324399E+01   1.5186054426E+01   1.5176193094E+01
  1.9111027290E+01   1.5468855644E+01   1.9116668021E+01
  2.3050354883E+01   1.5444669677E+01   2.2884485986E+01
  2.6595801508E+01   1.5094222497E+01   2.6912000005E+01
  3.1043131265E+01   1.5487236832E+01   3.0688555029E+01
  3.4413845847E+01   1.5162373700E+01   3.4821009174E+01
  1.8543807645E-01   1.9276095263E+01   3.4285121622E+00
  3.7120892012E+00   1.8937229745E+01   7.5765463049E+00
  7.6192446076E+00   1.9464897515E+01   1.1611129685E+01
  1.1343314738E+01   1.9425473420E+01   1.5339482506E+01
  1.5301976333E+01   1.9410383200E+01   1.8904155787E+01
  1.9398704354E+01   1.9163284632E+01   2.2680738973E+01
  2.2794583567E+01   1.9211776633E+01   2.6323470476E+01
  2.6986196173E+01   1.8836738827E+01   3.0249474933E+01
  3.0619632332E+01   1.9026174921E+01   3.4155475040E+01
  3.8134451469E+01   2.3307243626E+01   7.9383462985E+00
  3.7424021385E+00   2.2703553032E+01   1.1597163648E+01
  7.5956973223E+00   2.2989959544E+01   1.5313453474E+01
  1.1055554673E+01   2.3117458666E+01   1.9222784284E+01
  1.5221000986E+01   2.2993056476E+01   2.3133861988E+01
  1.9289924799E+01   2.3137622536E+01   2.6837339247E+01
  2.3411279732E+01   2.3145770435E+01   3.0633731041E+01
  2.6685015543E+01   2.2786986748E+01   3.4075768479E+01
  1.9951009048E-01   2.6230486591E+01   1.1857254968E+01
  3.9351166796E+00   2.7156947188E+01   1.4886209378E+01
  7.9052839117E+00   2.7339102769E+01   1.8945783343E+01
  1.1767413734E+01   2.7009300159E+01   2.2933490048E+01
  1.5507806114E+01   2.6894966105E+01   2.6694783997E+01
  1.9528680056E+01   2.6467173396E+01   3.0495832577E+01
  2.3009541336E+01   2.7066737698E+01   3.4121470121E+01
  3.7961271849E+01   3.0540133194E+01   1.5596653308E+01
  3.9484284458E+00   3.0367832780E+01   1.9036119758E+01
  7.7221917252E+00   3.0230962521E+01   2.3148155957E+01
  1.1779086384E+01   3.1160444192E+01   2.6803097663E+01
  1.5678880694E+01   3.0454804021E+01   3.0718206317E+01
  1.9269289543E+01   3.0508103419E+01   3.4396055401E+01
  2.6054170869E-01   3.4119288071E+01   1.8948036787E+01
  3.6171889563E+00   3.4108000462E+01   2.2908116748E+01
  8.0250891855E+00   3.4814105004E+01   2.6688843475E+01
  1.1292098243E+01   3.4403216338E+01   3.0478874448E+01
  1.5018598451E+01   3.4530134340E+01   3.4269035880E+01
  2.3161137827E+01   1.7496083736E-01   4.6901330411E-01
  2.6564845139E+01   3.1614891678E-01   3.6837270901E+00
  3.0790124191E+01   3.8164824724E+01   7.8832099173E+00
  3.4419376458E+01   5.6559100698E-01   1.1335994734E+01
  1.9135602386E+01   3.8593460925E+00   7.5110202243E-02
  2.3196001805E+01   4.0833959906E+00   3.9407959752E+00
  2.6919666322E+01   3.5296311325E+00   7.3860738283E+00
  3.0509428648E+01   3.9365283083E+00   1.1052112168E+01
  3.4494619123E+01   3.7200056793E+00   1.4939192161E+01
  1.4855684810E+01   7.7445123844E+00   3.7925632519E+01
  1.9191252178E+01   7.3659616484E+00   3.7573765582E+00
  2.2867794335E+01   7.7348562546E+00   8.1180640356E+00
  2.7292140754E+01   8.0884996100E+00   1.1367540509E+01
  3.0806350252E+01   7.5123654293E+00   1.5448098384E+01
  3.3965361372E+01   7.8493476030E+00   1.8813922694E+01
  1.1020836797E+01   1.1331597136E+01   4.6923990677E-02
  1.5324322133E+01   1.1385874319E+01   3.9489391690E+00
  1.9040510826E+01   1.1837032397E+01   7.2892902849E+00
  2.3308653734E+01   1.1708278591E+01   1.1189502675E+01
  2.7123767510E+01   1.1526065200E+01   1.5029064864E+01
  3.0849775496E+01   1.1888371504E+01   1.9322540432E+01
  3.4386073913E+01   1.1470499232E+01   2.3461307125E+01
  7.7614354133E+00   1.5265549103E+01   3.4344022975E-01
  1.1568833283E+01   1.5090364774E+01   3.5518501642E+00
  1.5324387969E+01   1.5323554360E+01   8.0235883945E+00
  1.9642407892E+01   1.5099789467E+01   1.1183692481E+01
  2.2478187702E+01   1.5529722108E+01   1.5329963172E+01
  2.6684898120E+01   1.5327688512E+01   1.9038372396E+01
  2.9987354940E+01   1.5507996588E+01   2.3286613639E+01
  3.4415724615E+01   1.5572742477E+01   2.6747451219E+01
  3.3972230361E+00   1.9560512615E+01   3.7745299261E+01
  7.7540575746E+00   1.9327281709E+01   3.6727243093E+00
  1.1887239418E+01   1.8752988390E+01   7.5464605378E+00
  1.5571451778E+01   1.9122789838E+01   1.1817818018E+01
  1.9326358871E+01   1.9451046358E+01   1.5323603479E+01
  2.3054654116E+01   1.8943556023E+01   1.8987412408E+01
  2.6713972322E+01   1.9574179385E+01   2.2613526626E+01
  3.0748772962E+01   1.9058239883E+01   2.6869000097E+01
  3.4420101400E+01   1.9222876890E+01   3.0846302806E+01
  4.2811272411E-02   2.2962996833E+01   8.6797108165E-02
  3.6159577694E+00   2.2680759975E+01   4.0774451052E+00
  8.1565530392E+00   2.2452888337E+01   7.7505748685E+00
  1.2054767585E+01   2.2533589369E+01   1.1077225907E+01
  1.5047793344E+01   2.3357647698E+01   1.5226395100E+01
  1.9125177179E+01   2.2835098289E+01   1.8852909529E+01
  2.2715455500E+01   2.2990530798E+01   2.2537995509E+01
  2.6866234059E+01   2.2626224712E+01   2.7121203906E+01
  3.1117124713E+01   2.2847524299E+01   3.0745881953E+01
  3.4212552131E+01   2.2492089729E+01   3.4549984750E+01
  3.8089777557E+01   2.7007822612E+01   3.8256172811E+00
  4.2651820270E+00   2.6830869481E+01   7.6720462027E+00
  7.5713099047E+00   2.6583130498E+01   1.1618739124E+01
  1.1640383259E+01   2.6464607386E+01   1.5642235556E+01
  1.5146702765E+01   2.6917787748E+01   1.9295131724E+01
  1.8843846845E+01   2.6556654789E+01   2.2521719395E+01
  2.2728963034E+01   2.6767243104E+01   2.6683401344E+01
  2.6590140967E+01   2.6705788777E+01   2.9859317045E+01
  3.0313236450E+01   2.6806594890E+01   3.4619257597E+01
  3.1220765044E-01   3.0092979999E+01   7.9135824018E+00
  3.9455610509E+00   3.0737588501E+01   1.1238916660E+01
  7.7582286690E+00   3.0652732252E+01   1.4913661151E+01
  1.1445798088E+01   3.0755472826E+01   1.9004200167E+01
  1.5321735987E+01   3.0697108475E+01   2.2638592366E+01
  1.8874480707E+01   3.0380799072E+01   2.6496827864E+01
  2.2968083951E+01   3.0447735224E+01   3.0700506658E+01
  2.6925222954E+01   3.0388631446E+01   3.4406653186E+01
  3.8016812239E+01   3.5001432227E+01   1.1716231492E+01
  3.8513047921E+00   3.3864124480E+01   1.5365879661E+01
  7.6993273038E+00   3.4466908170E+01   1.9172277222E+01
  1.1684195492E+01   3.4247733544E+01   2.2936641263E+01
  1.5562848923E+01   3.4231838355E+01   2.6999136662E+01
  1.9358775730E+01   3.3917954183E+01   3.1018160521E+01
  2.3382884118E+01   3.4514409654E+01   3.4662569487E+01
  3.0947871811E+01   3.8012002931E+01   1.0707624816E-01
  3.4803454480E+01   6.2003675510E-01   3.7948121001E+00
  2.6568009699E+01   3.7987572511E+00   8.1257605083E-02
  3.0874809155E+01   3.7107180250E+00   4.2707716808E+00
  3.4679413064E+01   3.9347149874E+00   7.8248536862E+00
  2.2986263903E+01   7.5800559086E+00   4.0983561336E-01
  2.7145311327E+01   7.5219951071E+00   3.3526892475E+00
  3.0237217923E+01   7.4757344247E+00   7.7303108546E+00
  3.4646727542E+01   7.6814445280E+00   1.1178530272E+01
  1.9077769193E+01   1.1445425945E+01   3.3486240195E-02
  2.2821508068E+01   1.1321195851E+01   3.7309539192E+00
  2.6590032637E+01   1.1218283605E+01   7.2534052607E+00
  3.0820546020E+01   1.1600651730E+01   1.1367044152E+01
  3.4458376576E+01   1.2211863845E+01   1.5613749789E+01
  1.5535309883E+01   1.5610467318E+01   2.5824306346E-01
  1.9026331142E+01   1.5370259291E+01   3.4751437623E+00
  2.2993311931E+01   1.5174148229E+01   7.3568740516E+00
  2.7002881287E+01   1.5624681605E+01   1.1451935971E+01
  3.0736552009E+01   1.5381341194E+01   1.5338345285E+01
  3.4189675448E+01   1.5283621963E+01   1.9511831868E+01
  1.2116014234E+01   1.9174472338E+01   3.8043769359E+01
  1.5369132240E+01   1.9437470947E+01   3.7236399286E+00
  1.9361940617E+01   1.9414087335E+01   7.9532741152E+00
  2.2801591557E+01   1.9171095797E+01   1.1667352259E+01
  2.7474885168E+01   1.9197435857E+01   1.5367489889E+01
  3.0469020064E+01   1.9676753702E+01   1.9486814562E+01
  3.4552757672E+01   1.8805193108E+01   2.3082819501E+01
  7.4771729829E+00   2.3323882707E+01   4.1856386863E-01
  1.1477841208E+01   2.2627092431E+01   4.0681705370E+00
  1.5140393194E+01   2.2652289101E+01   7.3288317846E+00
  1.8874948495E+01   2.2923458773E+01   1.1103066881E+01
  2.3183993255E+01   2.2828254438E+01   1.4879748638E+01
  2.5963813959E+01   2.2955647099E+01   1.8696466554E+01
  3.0640258440E+01   2.2661898748E+01   2.3678286309E+01
  3.4696467845E+01   2.2991605240E+01   2.6664315031E+01
  4.0144103105E+00   2.6528298661E+01   3.7489607786E-01
  7.7101428051E+00   2.6950878170E+01   4.0945340775E+00
  1.1075390932E+01   2.7078486847E+01   7.5908205426E+00
  1.5244058064E+01   2.6824527081E+01   1.1223814648E+01
  1.8910268145E+01   2.6468084188E+01   1.5139002974E+01
  2.3575898038E+01   2.7306643772E+01   1.8877460286E+01
  2.6615180066E+01   2.6434013232E+01   2.3391061667E+01
  3.0523807278E+01   2.7128309018E+01   2.6907732125E+01
  3.4202679826E+01   2.6791098175E+01   3.0486551345E+01
  8.6364948070E-02   3.0325830331E+01   5.1235773368E-02
  3.6574849079E+00   3.0328615524E+01   3.4423811039E+00
  7.1040461333E+00   3.0697262148E+01   7.1411739966E+00
  1.1435603699E+01   3.0312276573E+01   1.1699772255E+01
  1.5260537243E+01   3.0322600536E+01   1.5423871249E+01
  1.9793147862E+01   3.0620490808E+01   1.8561608535E+01
  2.2725080051E+01   3.0515787322E+01   2.3220958588E+01
  2.6320970764E+01   3.0517361127E+01   2.6620290983E+01
  3.0615141145E+01   3.0898154586E+01   3.0439931394E+01
  3.4612434320E+01   3.0562840025E+01   3.5059453664E+01
  1.9389667392E-01   3.4614207257E+01   3.9547456998E+00
  4.0027119159E+00   3.4497440027E+01   7.7075705336E+00
  7.6572177294E+00   3.4447457924E+01   1.2228155467E+01
  1.1822405104E+01   3.4531882457E+01   1.5551519570E+01
  1.5655116049E+01   3.4038620104E+01   1.9237071050E+01
  1.9430636553E+01   3.4920223672E+01   2.2796515788E+01
  2.2365596560E+01   3.3836987313E+01   2.6817045982E+01
  2.7029474956E+01   3.4702654074E+01   3.0583642854E+01
  3.0595279860E+01   3.4562889739E+01   3.4558594685E+01
  3.5048944319E+01   3.7565857061E+00   3.3012965495E-01
  3.0200832935E+01   8.1770116534E+00   3.8143621428E+01
  3.4247693596E+01   7.5158229684E+00   3.6907582002E+00
  2.6512302662E+01   1.1507024787E+01   3.7934810282E+01
  3.0576433904E+01   1.1163516277E+01   3.6195049396E+00
  3.3944801214E+01   1.1686586518E+01   7.4849012727E+00
  2.3091420738E+01   1.4860840020E+01   3.8180484177E+01
  2.7352054797E+01   1.5173819287E+01   4.0889817214E+00
  3.0705146760E+01   1.5385053516E+01   7.9070624512E+00
  3.4597090544E+01   1.5436417382E+01   1.1497870306E+01
  1.9279075281E+01   1.9456929181E+01   4.1461988134E-01
  2.3414851867E+01   1.8957488817E+01   4.1906099899E+00
  2.6749731486E+01   1.9461404061E+01   8.2731717944E+00
  3.0810138254E+01   1.9018325631E+01   1.1155290322E+01
  3.4555153472E+01   1.9258364714E+01   1.4904498930E+01
  1.5137410502E+01   2.2760870819E+01   3.7898236606E+01
  1.8614935264E+01   2.2828410508E+01   3.9352746510E+00
  2.2629742083E+01   2.3209393086E+01   6.8693138049E+00
  2.6206250702E+01   2.3142576478E+01   1.0926756172E+01
  3.0318188541E+01   2.3093280325E+01   1.5030411174E+01
  3.4339784390E+01   2.2848333468E+01   1.9407598831E+01
  1.0990938784E+01   2.6976881044E+01   2.2457241440E-01
  1.5725277596E+01   2.6666002722E+01   3.4772241241E+00
  1.9024291745E+01   2.6634542739E+01   7.6252814956E+00
  2.3063418870E+01   2.6689306972E+01   1.1527566284E+01
  2.6596966100E+01   2.6488935114E+01   1.4905378270E+01
  3.0580396654E+01   2.6639052727E+01   1.9547068256E+01
  3.4229028124E+01   2.6513599077E+01   2.3423844359E+01
  7.4818779669E+00   3.0598982435E+01   4.4454110845E-01
  1.1662592801E+01   3.0730162503E+01   4.0147409476E+00
  1.5078307298E+01   3.1096364642E+01   7.7540876620E+00
  1.9732418117E+01   3.0079389012E+01   1.1566326896E+01
  2.2714208461E+01   3.0692294216E+01   1.5228845154E+01
  2.7109535064E+01   3.0499761316E+01   1.9090432001E+01
  3.0477611806E+01   3.0658687206E+01   2.3470513579E+01
  3.4351032024E+01   3.0252914934E+01   2.6624157642E+01
  3.4351301778E+00   3.4034841236E+01   2.7593795294E-01
  7.8540042882E+00   3.4256430954E+01   3.9260719694E+00
  1.0900871975E+01   3.4762843825E+01   8.0988478248E+00
  1.6124822368E+01   3.4137734713E+01   1.1405644411E+01
  1.9352819309E+01   3.4727490565E+01   1.5482472661E+01
  2.3152110725E+01   3.3912655157E+01   1.9276003255E+01
  2.7049096736E+01   3.3984691064E+01   2.2639918147E+01
  2.9984344999E+01   3.4311964867E+01   2.6893940705E+01
  3.4503044767E+01   3.4294795332E+01   3.0501309784E+01
  3.3993865416E+01   1.1457600387E+01   3.8074521013E+01
  3.0719312315E+01   1.5149222626E+01   2.1197837378E-01
  3.4600455920E+01   1.4556239634E+01   3.7079844051E+00
  2.7161864958E+01   1.8613638967E+01   3.8212969899E+01
  3.0313542630E+01   1.8732374710E+01   3.9732873567E+00
  3.4499230642E+01   1.8962363898E+01   7.4476817830E+00
  2.3288600328E+01   2.2962547948E+01   3.6391280555E-01
  2.6771551343E+01   2.3007628647E+01   3.3288435043E+00
  3.0179064106E+01   2.2808498272E+01   7.8774102424E+00
  3.3910913463E+01   2.2701862681E+01   1.0826303298E+01
  1.9014885455E+01   2.7199481614E+01   3.8241842577E+01
  2.3257870074E+01   2.7072921850E+01   4.2139056321E+00
  2.6342524184E+01   2.7135599220E+01   8.1844650059E+00
  3.0409666445E+01   2.7196201184E+01   1.1178752106E+01
  3.4580171147E+01   2.5983221705E+01   1.5493359564E+01
  1.5084219003E+01   3.0549623132E+01   1.8958247746E-01
  1.9441459973E+01   3.0550975538E+01   3.7119355460E+00
  2.2583159329E+01   3.0684551094E+01   7.1827942944E+00
  2.6805724769E+01   3.0874157348E+01   1.1378816588E+01
  3.0338010543E+01   3.0427518720E+01   1.5248975175E+01
  3.4440262238E+01   3.0505494567E+01   1.8875988733E+01
  1.1223173127E+01   3.4721233301E+01   2.1732090066E-02
  1.5126552235E+01   3.4442162987E+01   3.9503442767E+00
  1.9073436759E+01   3.4518199064E+01   7.3962883553E+00
  2.3333737755E+01   3.4143818047E+01   1.1540048363E+01
  2.6361953562E+01   3.4785312584E+01   1.5403151638E+01
  3.0700341581E+01   3.4385011483E+01   1.9047717827E+01
  3.4709724063E+01   3.4460357398E+01   2.2481032944E+01
  3.4262009974E+01   1.9128974833E+01   3.8199801957E+01
  3.0799001076E+01   2.3133792698E+01   3.7985224248E+01
  3.4270952293E+01   2.2859829808E+01   3.6420277668E+00
  2.6797280039E+01   2.6317159758E+01   3.7669431933E+01
  3.0846094964E+01   2.7341161002E+01   4.3799222897E+00
  3.4406251018E+01   2.6501504256E+01   7.6548458741E+00
  2.3032854717E+01   3.0413991224E+01   3.9105919440E-01
  2.7212929344E+01   3.0542540231E+01   3.8251355824E+00
  3.0457703361E+01   3.0568930475E+01   7.8205612111E+00
  3.4063292869E+01   3.0142570343E+01   1.2046881802E+01
  1.9125436383E+01   3.4459239694E+01   3.7935418544E+01
  2.2637530957E+01   3.4675942748E+01   4.1902496596E+00
  2.6827518017E+01   3.4962619173E+01   7.7482921589E+00
  3.1163107053E+01   3.4507662692E+01   1.1343718641E+01
  3.4216589887E+01   3.4338343604E+01   1.5170044836E+01
  3.4430464781E+01   2.6489620951E+01   3.8008054190E+01
  3.0438713563E+01   3.0657890960E+01   6.9054045786E-01
  3.4790675018E+01   3.1086262814E+01   3.7621273436E+00
  2.7329904263E+01   3.4063779472E+01   5.3496628081E-01
  3.0923088115E+01   3.4813427653E+01   4.2430992891E+00
  3.4729717099E+01   3.4594474350E+01   7.5691372392E+00
  3.4580990951E+01   3.4628783197E+01   4.9768313793E-01
:V(Bohr/atu):
 -1.0412444506E-04   5.3733638357E-04   2.9654489804E-04
  9.7344817652E-05  -7.4346147051E-05   1.0529292305E-04
  5.8211689898E-04  -2.1972953991E-04  -4.8835845593E-04
  1.7215292183E-04   4.0142242515E-04  -4.7264991481E-04
  2.2707112228E-04   2.9506438164E-05  -1.5928480095E-04
  6.6539238637E-05   3.6799514672E-04   6.9086885386E-05
 -2.8021671399E-04  -4.1530048057E-04   1.9411558050E-04
 -2.6171118577E-05   4.0278850104E-04   2.1977059646E-04
 -4.7953123604E-05  -3.4876421805E-04   2.4987632320E-04
 -4.5750829800E-04   2.2750324226E-05  -2.4426682669E-04
  6.4293775336E-05  -1.4712504074E-04  -2.0775416368E-04
 -2.6074887146E-04  -1.8358331878E-04   4.4884906158E-04
  4.3638220548E-04   1.3144769122E-04   1.3959006853E-04
 -1.3210939476E-04   2.9684223850E-04  -4.7019721610E-04
 -6.1242620844E-05   1.4123324888E-04   6.1962800295E-04
 -2.2745279593E-04  -6.8873910975E-04   2.3327145280E-04
 -8.1022194399E-05   1.7243807700E-04   3.3030781660E-04
 -2.9475525078E-04   2.5767355469E-04  -1.7519481437E-04
  3.3000488171E-04  -3.2124292559E-04   2.3574385095E-04
  1.2033152002E-04  -1.1514319560E-04  -1.8910407394E-04
 -3.7179989341E-04  -7.6141529059E-04  -5.5276249535E-05
 -1.6646106544E-04  -4.1215336421E-05  -1.8387214676E-04
  1.7384103514E-04  -2.1689649623E-04  -6.2123788215E-05
 -2.4575088920E-04  -4.0899027860E-04  -4.1096628383E-04
 -3.1002722540E-04   1.0638354663E-04   1.8233617690E-04