
     Program PWSCF v.7.0 starts on  5Dec2022 at 10:59:40 

     This program is part of the open-source Quantum ESPRESSO suite
     for quantum simulation of materials; please cite
         "P. Giannozzi et al., J. Phys.:Condens. Matter 21 395502 (2009);
         "P. Giannozzi et al., J. Phys.:Condens. Matter 29 465901 (2017);
         "P. Giannozzi et al., J. Chem. Phys. 152 154105 (2020);
          URL http://www.quantum-espresso.org", 
     in publications or presentations arising from this work. More details at
     http://www.quantum-espresso.org/quote

     Parallel version (MPI), running on    24 processors

     MPI processes distributed on     1 nodes
     R & G space division:  proc/nbgrp/npool/nimage =      24
     179101 MiB available memory on the printing compute node when the environment starts

     Reading input from pw.inp
Warning: card &CELL ignored
Warning: card / ignored

     Current dimensions of program PWSCF are:
     Max number of different atomic species (ntypx) = 10
     Max number of k-points (npk) =  40000
     Max angular momentum in pseudopotentials (lmaxx) =  4
     Message from routine cell_base_init:
     DEPRECATED: use true lattice parameter, not A to a.u. conversion factor

     IMPORTANT: XC functional enforced from input :
     Exchange-correlation= PBE
                           (   1   4   3   4   0   0   0)
     Any further DFT definition will be discarded
     Please, verify this is what you really want


     Subspace diagonalization in iterative solution of the eigenvalue problem:
     one sub-group per band group will be used
     scalapack distributed-memory algorithm (size of sub-group:  4*  4 procs)


     Parallelization info
     --------------------
     sticks:   dense  smooth     PW     G-vecs:    dense   smooth      PW
     Min        1322    1322    359                36912    36912    5230
     Max        1324    1324    361                36913    36913    5231
     Sum       31773   31773   8641               885889   885889  125533

     Using Slab Decomposition



     bravais-lattice index     =            0
     lattice parameter (alat)  =       1.0000  a.u.
     unit-cell volume          =    2319.2355 (a.u.)^3
     number of atoms/cell      =           24
     number of atomic types    =            1
     number of electrons       =        96.00
     number of Kohn-Sham states=           62
     kinetic-energy cutoff     =     200.0000  Ry
     charge density cutoff     =     800.0000  Ry
     scf convergence threshold =      1.0E-06
     mixing beta               =       0.7000
     number of iterations used =            8  plain     mixing
     Exchange-correlation= PBE
                           (   1   4   3   4   0   0   0)

     celldm(1)=   1.000000  celldm(2)=   0.000000  celldm(3)=   0.000000
     celldm(4)=   0.000000  celldm(5)=   0.000000  celldm(6)=   0.000000

     crystal axes: (cart. coord. in units of alat)
               a(1) = (  31.187375   0.000000   0.000000 )  
               a(2) = (   0.000000  16.000000   0.000000 )  
               a(3) = (   0.000000   0.000000   4.647785 )  

     reciprocal axes: (cart. coord. in units 2 pi/alat)
               b(1) = (  0.032064  0.000000  0.000000 )  
               b(2) = (  0.000000  0.062500  0.000000 )  
               b(3) = (  0.000000  0.000000  0.215156 )  


     PseudoPot. # 1 for C  read from file:
     .././06_C_4_1.2_1.2_pbe_n_v1.0.upf
     MD5 check sum: 7e0e17a2517474b8bea671dc4b65026c
     Pseudo is Norm-conserving + core correction, Zval =  4.0
     Generated using ONCVPSP code by D. R. Hamann
     Using radial grid of 1246 points,  4 beta functions with: 
                l(1) =   0
                l(2) =   0
                l(3) =   1
                l(4) =   1

     atomic species   valence    mass     pseudopotential
        C              4.00    12.00000     C ( 1.00)

     No symmetry found


                                    s                        frac. trans.

      isym =  1     identity                                     

 cryst.   s( 1) = (     1          0          0      )
                  (     0          1          0      )
                  (     0          0          1      )

 cart.    s( 1) = (  1.0000000  0.0000000  0.0000000 )
                  (  0.0000000  1.0000000  0.0000000 )
                  (  0.0000000  0.0000000  1.0000000 )


   Cartesian axes

     site n.     atom                  positions (alat units)
         1           C   tau(   1) = (  11.8436874   8.0000000   0.0000000  )
         2           C   tau(   2) = (  10.9444353  10.4706746   0.0000000  )
         3           C   tau(   3) = (   6.0781563  11.3287309   0.0000000  )
         4           C   tau(   4) = (   4.3881153   9.3146185   0.0000000  )
         5           C   tau(   5) = (   6.0781563   4.6712691   0.0000000  )
         6           C   tau(   6) = (   8.6674493   4.2147069   0.0000000  )
         7           C   tau(   7) = (   9.9218437  11.3287309   2.3238926  )
         8           C   tau(   8) = (   7.3325507  11.7852931   2.3238926  )
         9           C   tau(   9) = (   4.1563126   8.0000000   2.3238926  )
        10           C   tau(  10) = (   5.0555647   5.5293254   2.3238926  )
        11           C   tau(  11) = (   9.9218437   4.6712691   2.3238926  )
        12           C   tau(  12) = (  11.6118847   6.6853815   2.3238926  )
        13           C   tau(  13) = (  27.0310621   8.0000000   0.0000000  )
        14           C   tau(  14) = (  26.1318101  10.4706746   0.0000000  )
        15           C   tau(  15) = (  21.2655311  11.3287309   0.0000000  )
        16           C   tau(  16) = (  19.5754901   9.3146185   0.0000000  )
        17           C   tau(  17) = (  21.2655311   4.6712691   0.0000000  )
        18           C   tau(  18) = (  23.8548240   4.2147069   0.0000000  )
        19           C   tau(  19) = (  25.1092184  11.3287309   2.3238926  )
        20           C   tau(  20) = (  22.5199254  11.7852931   2.3238926  )
        21           C   tau(  21) = (  19.3436874   8.0000000   2.3238926  )
        22           C   tau(  22) = (  20.2429394   5.5293254   2.3238926  )
        23           C   tau(  23) = (  25.1092184   4.6712691   2.3238926  )
        24           C   tau(  24) = (  26.7992594   6.6853815   2.3238926  )

   Crystallographic axes

     site n.     atom                  positions (cryst. coord.)
         1           C   tau(   1) = (  0.3797590  0.5000000  0.0000000  )
         2           C   tau(   2) = (  0.3509252  0.6544172  0.0000000  )
         3           C   tau(   3) = (  0.1948916  0.7080457  0.0000000  )
         4           C   tau(   4) = (  0.1407017  0.5821637  0.0000000  )
         5           C   tau(   5) = (  0.1948916  0.2919543  0.0000000  )
         6           C   tau(   6) = (  0.2779153  0.2634192  0.0000000  )
         7           C   tau(   7) = (  0.3181365  0.7080457  0.5000000  )
         8           C   tau(   8) = (  0.2351128  0.7365808  0.5000000  )
         9           C   tau(   9) = (  0.1332691  0.5000000  0.5000000  )
        10           C   tau(  10) = (  0.1621029  0.3455828  0.5000000  )
        11           C   tau(  11) = (  0.3181365  0.2919543  0.5000000  )
        12           C   tau(  12) = (  0.3723265  0.4178363  0.5000000  )
        13           C   tau(  13) = (  0.8667309  0.5000000  0.0000000  )
        14           C   tau(  14) = (  0.8378971  0.6544172  0.0000000  )
        15           C   tau(  15) = (  0.6818635  0.7080457  0.0000000  )
        16           C   tau(  16) = (  0.6276735  0.5821637  0.0000000  )
        17           C   tau(  17) = (  0.6818635  0.2919543  0.0000000  )
        18           C   tau(  18) = (  0.7648872  0.2634192  0.0000000  )
        19           C   tau(  19) = (  0.8051084  0.7080457  0.5000000  )
        20           C   tau(  20) = (  0.7220847  0.7365808  0.5000000  )
        21           C   tau(  21) = (  0.6202410  0.5000000  0.5000000  )
        22           C   tau(  22) = (  0.6490748  0.3455828  0.5000000  )
        23           C   tau(  23) = (  0.8051084  0.2919543  0.5000000  )
        24           C   tau(  24) = (  0.8592983  0.4178363  0.5000000  )

     number of k points=     5  Fermi-Dirac smearing, width (Ry)=  0.0020
                       cart. coord. in units 2pi/alat
        k(    1) = (   0.0000000   0.0000000   0.0107578), wk =   0.4000000
        k(    2) = (   0.0000000   0.0000000   0.0322734), wk =   0.4000000
        k(    3) = (   0.0000000   0.0000000   0.0537891), wk =   0.4000000
        k(    4) = (   0.0000000   0.0000000   0.0753047), wk =   0.4000000
        k(    5) = (   0.0000000   0.0000000   0.0968203), wk =   0.4000000

                       cryst. coord.
        k(    1) = (   0.0000000   0.0000000   0.0500000), wk =   0.4000000
        k(    2) = (   0.0000000   0.0000000   0.1500000), wk =   0.4000000
        k(    3) = (   0.0000000   0.0000000   0.2500000), wk =   0.4000000
        k(    4) = (   0.0000000   0.0000000   0.3500000), wk =   0.4000000
        k(    5) = (   0.0000000   0.0000000   0.4500000), wk =   0.4000000

     Dense  grid:   885889 G-vectors     FFT dimensions: ( 288, 150,  45)

     Dynamical RAM for                 wfc:       4.37 MB

     Dynamical RAM for     wfc (w. buffer):      26.20 MB

     Dynamical RAM for           str. fact:       0.56 MB

     Dynamical RAM for           local pot:       0.00 MB

     Dynamical RAM for          nlocal pot:      13.52 MB

     Dynamical RAM for                qrad:       0.65 MB

     Dynamical RAM for          rho,v,vnew:       3.67 MB

     Dynamical RAM for               rhoin:       1.22 MB

     Dynamical RAM for            rho*nmix:       9.01 MB

     Dynamical RAM for           G-vectors:       2.39 MB

     Dynamical RAM for          h,s,v(r/c):       0.04 MB

     Dynamical RAM for          <psi|beta>:       0.18 MB

     Dynamical RAM for                 psi:       8.73 MB

     Dynamical RAM for                hpsi:       8.73 MB

     Dynamical RAM for      wfcinit/wfcrot:       8.82 MB

     Estimated static dynamical RAM per process >      52.63 MB

     Estimated max dynamical RAM per process >      79.34 MB

     Estimated total dynamical RAM >       1.86 GB

     Initial potential from superposition of free atoms

     starting charge      95.9989, renormalised to      96.0000
     Starting wfcs are random

     total cpu time spent up to now is        5.0 secs

     per-process dynamical memory:    75.9 Mb

     Self-consistent Calculation

     iteration #  1     ecut=   200.00 Ry     beta= 0.70
     Davidson diagonalization with overlap

---- Real-time Memory Report at c_bands before calling an iterative solver
           129 MiB given to the printing process from OS
            74 MiB allocation reported by mallinfo(arena+hblkhd)
        177452 MiB available memory on the node where the printing process lives
------------------
     ethr =  1.00E-02,  avg # of iterations = 14.2

     total cpu time spent up to now is       23.3 secs

     total energy              =    -287.62655416 Ry
     estimated scf accuracy    <       2.60796629 Ry

     iteration #  2     ecut=   200.00 Ry     beta= 0.70
     Davidson diagonalization with overlap

---- Real-time Memory Report at c_bands before calling an iterative solver
           153 MiB given to the printing process from OS
            89 MiB allocation reported by mallinfo(arena+hblkhd)
        177108 MiB available memory on the node where the printing process lives
------------------
     ethr =  2.72E-03,  avg # of iterations =  3.2

     total cpu time spent up to now is       29.0 secs

     total energy              =    -288.03965951 Ry
     estimated scf accuracy    <       0.52853980 Ry

     iteration #  3     ecut=   200.00 Ry     beta= 0.70
     Davidson diagonalization with overlap

---- Real-time Memory Report at c_bands before calling an iterative solver
           154 MiB given to the printing process from OS
            90 MiB allocation reported by mallinfo(arena+hblkhd)
        177096 MiB available memory on the node where the printing process lives
------------------
     ethr =  5.51E-04,  avg # of iterations =  3.4

     total cpu time spent up to now is       34.5 secs

     total energy              =    -288.21686920 Ry
     estimated scf accuracy    <       0.13738745 Ry

     iteration #  4     ecut=   200.00 Ry     beta= 0.70
     Davidson diagonalization with overlap

---- Real-time Memory Report at c_bands before calling an iterative solver
           155 MiB given to the printing process from OS
            91 MiB allocation reported by mallinfo(arena+hblkhd)
        177069 MiB available memory on the node where the printing process lives
------------------
     ethr =  1.43E-04,  avg # of iterations =  4.0

     total cpu time spent up to now is       39.6 secs

     total energy              =    -288.24367334 Ry
     estimated scf accuracy    <       0.00296907 Ry

     iteration #  5     ecut=   200.00 Ry     beta= 0.70
     Davidson diagonalization with overlap

---- Real-time Memory Report at c_bands before calling an iterative solver
           156 MiB given to the printing process from OS
            92 MiB allocation reported by mallinfo(arena+hblkhd)
        177042 MiB available memory on the node where the printing process lives
------------------
     c_bands:  3 eigenvalues not converged
     c_bands:  2 eigenvalues not converged
     c_bands:  1 eigenvalues not converged
     ethr =  3.09E-06,  avg # of iterations = 16.2

     total cpu time spent up to now is       48.5 secs

     total energy              =    -288.24334605 Ry
     estimated scf accuracy    <       0.02076059 Ry

     iteration #  6     ecut=   200.00 Ry     beta= 0.70
     Davidson diagonalization with overlap

---- Real-time Memory Report at c_bands before calling an iterative solver
           158 MiB given to the printing process from OS
            94 MiB allocation reported by mallinfo(arena+hblkhd)
        176997 MiB available memory on the node where the printing process lives
------------------
     c_bands:  1 eigenvalues not converged
     ethr =  3.09E-06,  avg # of iterations = 10.0

     total cpu time spent up to now is       54.7 secs

     total energy              =    -288.24585556 Ry
     estimated scf accuracy    <       0.00074037 Ry

     iteration #  7     ecut=   200.00 Ry     beta= 0.70
     Davidson diagonalization with overlap

---- Real-time Memory Report at c_bands before calling an iterative solver
           159 MiB given to the printing process from OS
            95 MiB allocation reported by mallinfo(arena+hblkhd)
        176979 MiB available memory on the node where the printing process lives
------------------
     ethr =  7.71E-07,  avg # of iterations =  4.4

     total cpu time spent up to now is       59.2 secs

     total energy              =    -288.24596870 Ry
     estimated scf accuracy    <       0.00004769 Ry

     iteration #  8     ecut=   200.00 Ry     beta= 0.70
     Davidson diagonalization with overlap

---- Real-time Memory Report at c_bands before calling an iterative solver
           160 MiB given to the printing process from OS
            95 MiB allocation reported by mallinfo(arena+hblkhd)
        176960 MiB available memory on the node where the printing process lives
------------------
     ethr =  4.97E-08,  avg # of iterations =  2.8

     total cpu time spent up to now is       64.3 secs

     total energy              =    -288.24598148 Ry
     estimated scf accuracy    <       0.00000661 Ry

     iteration #  9     ecut=   200.00 Ry     beta= 0.70
     Davidson diagonalization with overlap

---- Real-time Memory Report at c_bands before calling an iterative solver
           161 MiB given to the printing process from OS
            97 MiB allocation reported by mallinfo(arena+hblkhd)
        176931 MiB available memory on the node where the printing process lives
------------------
     ethr =  6.88E-09,  avg # of iterations =  3.6

     total cpu time spent up to now is       69.3 secs

     total energy              =    -288.24598341 Ry
     estimated scf accuracy    <       0.00000105 Ry

     iteration # 10     ecut=   200.00 Ry     beta= 0.70
     Davidson diagonalization with overlap

---- Real-time Memory Report at c_bands before calling an iterative solver
           162 MiB given to the printing process from OS
            98 MiB allocation reported by mallinfo(arena+hblkhd)
        176903 MiB available memory on the node where the printing process lives
------------------
     ethr =  1.10E-09,  avg # of iterations =  3.0

     total cpu time spent up to now is       74.1 secs

     End of self-consistent calculation

          k = 0.0000 0.0000 0.0108 (110949 PWs)   bands (ev):

   -17.9014 -17.8986 -16.8730 -16.8692 -16.8649 -16.8624 -14.3849 -14.3773
   -14.3757 -14.3752 -11.4630 -11.4548 -10.5184 -10.5168  -7.2177  -7.2076
    -7.2007  -7.2002  -5.9568  -5.9009  -5.0005  -4.9254  -4.9220  -4.8999
    -4.6079  -4.6065  -3.8139  -3.8126  -3.8078  -3.8063  -2.3877  -2.3460
    -2.3422  -2.3391  -1.8212  -1.8198  -1.8170  -1.8156  -1.1447  -1.0011
    -0.9691  -0.9465  -0.6781  -0.6703  -0.5191  -0.5177   1.7344   1.8455
     3.9395   4.0596   5.9385   6.2646   6.4251   6.5204   6.5761   6.7662
     6.9836   7.0185   7.1047   7.6142   7.7576   7.7855

     occupation numbers 
     1.0000   1.0000   1.0000   1.0000   1.0000   1.0000   1.0000   1.0000
     1.0000   1.0000   1.0000   1.0000   1.0000   1.0000   1.0000   1.0000
     1.0000   1.0000   1.0000   1.0000   1.0000   1.0000   1.0000   1.0000
     1.0000   1.0000   1.0000   1.0000   1.0000   1.0000   1.0000   1.0000
     1.0000   1.0000   1.0000   1.0000   1.0000   1.0000   1.0000   1.0000
     1.0000   1.0000   1.0000   1.0000   1.0000   1.0000   1.0000   1.0000
     0.0000   0.0000   0.0000   0.0000   0.0000   0.0000   0.0000   0.0000
     0.0000   0.0000   0.0000   0.0000   0.0000   0.0000

          k = 0.0000 0.0000 0.0323 (110889 PWs)   bands (ev):

   -17.5392 -17.5364 -16.5192 -16.5155 -16.5112 -16.5087 -14.0494 -14.0420
   -14.0405 -14.0399 -11.1577 -11.1499 -10.2493 -10.2478  -7.1119  -7.1043
    -7.0980  -7.0978  -6.0001  -5.9985  -5.5501  -5.4962  -5.0654  -5.0634
    -5.0600  -5.0584  -4.7874  -4.7341  -4.7316  -4.7134  -3.2641  -3.2382
    -3.2338  -3.2302  -2.1335  -2.1006  -2.0964  -2.0946  -1.7240  -1.7223
    -1.2977  -1.2937  -0.8027  -0.6646  -0.6287  -0.6126   2.0991   2.2077
     3.8361   3.9256   6.1474   6.3011   6.3695   6.4368   6.5397   7.0437
     7.2334   7.2589   7.2839   7.3739   7.3898   7.4528

     occupation numbers 
     1.0000   1.0000   1.0000   1.0000   1.0000   1.0000   1.0000   1.0000
     1.0000   1.0000   1.0000   1.0000   1.0000   1.0000   1.0000   1.0000
     1.0000   1.0000   1.0000   1.0000   1.0000   1.0000   1.0000   1.0000
     1.0000   1.0000   1.0000   1.0000   1.0000   1.0000   1.0000   1.0000
     1.0000   1.0000   1.0000   1.0000   1.0000   1.0000   1.0000   1.0000
     1.0000   1.0000   1.0000   1.0000   1.0000   1.0000   1.0000   1.0000
     0.0000   0.0000   0.0000   0.0000   0.0000   0.0000   0.0000   0.0000
     0.0000   0.0000   0.0000   0.0000   0.0000   0.0000

          k = 0.0000 0.0000 0.0538 (110759 PWs)   bands (ev):

   -16.8188 -16.8161 -15.8161 -15.8126 -15.8082 -15.8057 -13.3870 -13.3800
   -13.3787 -13.3780 -10.5494 -10.5423  -9.9319  -9.9303  -7.8093  -7.8079
    -7.8043  -7.8027  -7.7485  -7.7468  -5.8865  -5.8826  -5.8768  -5.8763
    -5.6112  -5.6110  -5.6083  -5.6062  -4.7879  -4.7407  -3.7534  -3.7069
    -3.7042  -3.6892  -3.4738  -3.4715  -2.3849  -2.3760  -2.1280  -2.0698
    -2.0619  -2.0600  -0.1765  -0.0539  -0.0217  -0.0072   2.8025   2.9127
     3.1679   3.2236   5.4773   5.5476   5.5901   5.6487   6.4361   6.4955
     6.5055   6.5559   7.3591   7.3777   7.3836   7.9730

     occupation numbers 
     1.0000   1.0000   1.0000   1.0000   1.0000   1.0000   1.0000   1.0000
     1.0000   1.0000   1.0000   1.0000   1.0000   1.0000   1.0000   1.0000
     1.0000   1.0000   1.0000   1.0000   1.0000   1.0000   1.0000   1.0000
     1.0000   1.0000   1.0000   1.0000   1.0000   1.0000   1.0000   1.0000
     1.0000   1.0000   1.0000   1.0000   1.0000   1.0000   1.0000   1.0000
     1.0000   1.0000   1.0000   1.0000   1.0000   1.0000   0.9998   0.9904
     0.0086   0.0011   0.0000   0.0000   0.0000   0.0000   0.0000   0.0000
     0.0000   0.0000   0.0000   0.0000   0.0000   0.0000

          k = 0.0000 0.0000 0.0753 (110667 PWs)   bands (ev):

   -15.7501 -15.7475 -14.7750 -14.7718 -14.7673 -14.7650 -12.4391 -12.4326
   -12.4320 -12.4308 -10.8714 -10.8695  -9.6432  -9.6384  -9.6368  -9.6365
    -9.6325  -9.6309  -8.0122  -8.0107  -7.4959  -7.4931  -7.4917  -7.4910
    -5.4244  -5.4202  -5.4151  -5.4148  -5.2983  -5.2951  -4.3889  -4.3802
    -3.5588  -3.5512  -3.5495  -3.5431  -3.0233  -2.9801  -1.7005  -1.6138
    -1.6051  -1.5936   0.5267   0.6089   0.6369   0.6519   1.7736   1.8049
     3.8284   3.9158   4.3322   4.3488   4.3992   4.4027   5.4796   5.4816
     5.5084   5.5390   7.0827   7.0935   8.7932   9.3077

     occupation numbers 
     1.0000   1.0000   1.0000   1.0000   1.0000   1.0000   1.0000   1.0000
     1.0000   1.0000   1.0000   1.0000   1.0000   1.0000   1.0000   1.0000
     1.0000   1.0000   1.0000   1.0000   1.0000   1.0000   1.0000   1.0000
     1.0000   1.0000   1.0000   1.0000   1.0000   1.0000   1.0000   1.0000
     1.0000   1.0000   1.0000   1.0000   1.0000   1.0000   1.0000   1.0000
     1.0000   1.0000   1.0000   1.0000   1.0000   1.0000   1.0000   1.0000
     0.0000   0.0000   0.0000   0.0000   0.0000   0.0000   0.0000   0.0000
     0.0000   0.0000   0.0000   0.0000   0.0000   0.0000

          k = 0.0000 0.0000 0.0968 (110587 PWs)   bands (ev):

   -14.3530 -14.3506 -13.4267 -13.4239 -13.4192 -13.4169 -12.6734 -12.6712
   -11.9865 -11.9853 -11.9800 -11.9778 -10.6736 -10.6705 -10.6686 -10.6682
    -9.3032  -9.2995  -9.2981  -9.2973  -8.4490  -8.4438  -6.9878  -6.9869
    -6.9864  -6.9828  -5.6396  -5.6382  -4.6838  -4.6815  -4.6779  -4.6773
    -3.9650  -3.9638  -3.9621  -3.9610  -1.7385  -1.6931  -0.5955  -0.5227
    -0.5127  -0.4971   0.0025   0.0404   0.5308   0.5448   0.5792   0.5958
     3.7873   3.8351   3.8660   3.8847   4.4693   4.5149   4.5314   4.5520
     5.0372   5.1101   6.2316   6.2779  10.5108  10.6577

     occupation numbers 
     1.0000   1.0000   1.0000   1.0000   1.0000   1.0000   1.0000   1.0000
     1.0000   1.0000   1.0000   1.0000   1.0000   1.0000   1.0000   1.0000
     1.0000   1.0000   1.0000   1.0000   1.0000   1.0000   1.0000   1.0000
     1.0000   1.0000   1.0000   1.0000   1.0000   1.0000   1.0000   1.0000
     1.0000   1.0000   1.0000   1.0000   1.0000   1.0000   1.0000   1.0000
     1.0000   1.0000   1.0000   1.0000   1.0000   1.0000   1.0000   1.0000
     0.0000   0.0000   0.0000   0.0000   0.0000   0.0000   0.0000   0.0000
     0.0000   0.0000   0.0000   0.0000   0.0000   0.0000

     the Fermi energy is     3.0388 ev

!    total energy              =    -288.24598342 Ry
     estimated scf accuracy    <       0.00000034 Ry
     smearing contrib. (-TS)   =      -0.00009140 Ry
     internal energy E=F+TS    =    -288.24589202 Ry

     The total energy is F=E-TS. E is the sum of the following terms:
     one-electron contribution =    -634.40915125 Ry
     hartree contribution      =     350.29744813 Ry
     xc contribution           =    -103.51961617 Ry
     ewald contribution        =      99.38542727 Ry

     convergence has been achieved in  10 iterations

     Forces acting on atoms (cartesian axes, Ry/au):

     atom    1 type  1   force =     0.04408178   -0.02026693   -0.00000219
     atom    2 type  1   force =     0.01862254    0.04274744    0.00000333
     atom    3 type  1   force =    -0.00545836    0.04862538   -0.00000359
     atom    4 type  1   force =    -0.04539331   -0.00461833    0.00000232
     atom    5 type  1   force =    -0.04143432   -0.03031587    0.00000010
     atom    6 type  1   force =     0.02918569   -0.03757708   -0.00000674
     atom    7 type  1   force =     0.04146734    0.03031118    0.00000189
     atom    8 type  1   force =    -0.02920891    0.03750332    0.00000174
     atom    9 type  1   force =    -0.04415911    0.02020152   -0.00000199
     atom   10 type  1   force =    -0.01855535   -0.04274180   -0.00000077
     atom   11 type  1   force =     0.00542954   -0.04858083   -0.00000098
     atom   12 type  1   force =     0.04519539    0.00456821   -0.00000237
     atom   13 type  1   force =     0.04414823   -0.02019853    0.00000236
     atom   14 type  1   force =     0.01853822    0.04273022   -0.00000303
     atom   15 type  1   force =    -0.00542413    0.04858669    0.00000259
     atom   16 type  1   force =    -0.04518798   -0.00457887    0.00000430
     atom   17 type  1   force =    -0.04148579   -0.03031888   -0.00000117
     atom   18 type  1   force =     0.02920500   -0.03751379   -0.00000030
     atom   19 type  1   force =     0.04145189    0.03032291    0.00000216
     atom   20 type  1   force =    -0.02919085    0.03756781    0.00000080
     atom   21 type  1   force =    -0.04406842    0.02028407   -0.00000007
     atom   22 type  1   force =    -0.01860521   -0.04274781   -0.00000067
     atom   23 type  1   force =     0.00545016   -0.04863613    0.00000046
     atom   24 type  1   force =     0.04539597    0.00464612    0.00000182
     The non-local contrib.  to forces
     atom    1 type  1   force =     0.03236099    0.00482149   -0.00000245
     atom    2 type  1   force =     0.02532138    0.01608169    0.00000433
     atom    3 type  1   force =    -0.02037346    0.02702276   -0.00000498
     atom    4 type  1   force =    -0.02545479    0.01293174    0.00000395
     atom    5 type  1   force =    -0.01529585   -0.03390668    0.00000013
     atom    6 type  1   force =     0.00079028   -0.03008133   -0.00000713
     atom    7 type  1   force =     0.01514380    0.03393953    0.00000385
     atom    8 type  1   force =    -0.00085359    0.02988690    0.00000374
     atom    9 type  1   force =    -0.03240698   -0.00458726    0.00000130
     atom   10 type  1   force =    -0.02548610   -0.01574132    0.00000040
     atom   11 type  1   force =     0.02048113   -0.02707442   -0.00000215
     atom   12 type  1   force =     0.02515768   -0.01275195   -0.00000323
     atom   13 type  1   force =     0.03240782    0.00463518    0.00000486
     atom   14 type  1   force =     0.02544814    0.01573664   -0.00000479
     atom   15 type  1   force =    -0.02051933    0.02708746    0.00000150
     atom   16 type  1   force =    -0.02512855    0.01271338    0.00000587
     atom   17 type  1   force =    -0.01522110   -0.03388690   -0.00000235
     atom   18 type  1   force =     0.00080007   -0.02995662    0.00000244
     atom   19 type  1   force =     0.01529764    0.03388218    0.00000023
     atom   20 type  1   force =    -0.00080494    0.03009757   -0.00000142
     atom   21 type  1   force =    -0.03231533   -0.00476938    0.00000079
     atom   22 type  1   force =    -0.02537478   -0.01603933   -0.00000210
     atom   23 type  1   force =     0.02043686   -0.02705111    0.00000122
     atom   24 type  1   force =     0.02544336   -0.01284316    0.00000206
     The ionic contribution  to forces
     atom    1 type  1   force =     9.19579241    0.00122359   -0.00000000
     atom    2 type  1   force =     7.50450674    7.64621014   -0.00000000
     atom    3 type  1   force =    -6.66975480    9.65048431    0.00000000
     atom    4 type  1   force =   -10.69178200    4.21914207   -0.00000000
     atom    5 type  1   force =    -6.63936793   -9.65576480   -0.00000000
     atom    6 type  1   force =     1.23136409  -10.62474571   -0.00000000
     atom    7 type  1   force =     4.91801354    9.72964593   -0.00000000
     atom    8 type  1   force =    -2.92935206   10.60068960   -0.00000000
     atom    9 type  1   force =   -11.10890880   -0.00505452    0.00000000
     atom   10 type  1   force =    -9.28618888   -7.53595908    0.00000000
     atom   11 type  1   force =     4.94976991   -9.72400481   -0.00000000
     atom   12 type  1   force =     8.82685950   -4.31289621   -0.00000000
     atom   13 type  1   force =    11.10890880    0.00505452   -0.00000000
     atom   14 type  1   force =     9.28618888    7.53595908   -0.00000000
     atom   15 type  1   force =    -4.94976991    9.72400481   -0.00000000
     atom   16 type  1   force =    -8.82685950    4.31289621   -0.00000000
     atom   17 type  1   force =    -4.91801354   -9.72964593   -0.00000000
     atom   18 type  1   force =     2.92935206  -10.60068960   -0.00000000
     atom   19 type  1   force =     6.63936793    9.65576480   -0.00000000
     atom   20 type  1   force =    -1.23136409   10.62474571   -0.00000000
     atom   21 type  1   force =    -9.19579241   -0.00122359    0.00000000
     atom   22 type  1   force =    -7.50450674   -7.64621014    0.00000000
     atom   23 type  1   force =     6.66975480   -9.65048431   -0.00000000
     atom   24 type  1   force =    10.69178200   -4.21914207    0.00000000
     The local contribution  to forces
     atom    1 type  1   force =    -9.17292473   -0.02694109    0.00000157
     atom    2 type  1   force =    -7.50319714   -7.61171725   -0.00000168
     atom    3 type  1   force =     6.67940098   -9.61857095    0.00000056
     atom    4 type  1   force =    10.66123728   -4.23321228    0.00000010
     atom    5 type  1   force =     6.60713080    9.64948610    0.00000104
     atom    6 type  1   force =    -1.20067001   10.60603719    0.00000047
     atom    7 type  1   force =    -4.88586244   -9.72332656   -0.00000005
     atom    8 type  1   force =     2.89827855  -10.58191153   -0.00000144
     atom    9 type  1   force =    11.08590666    0.03041102   -0.00000354
     atom   10 type  1   force =     9.28492414    7.50119371   -0.00000284
     atom   11 type  1   force =    -4.95993422    9.69208159    0.00000172
     atom   12 type  1   force =    -8.79639107    4.32663710   -0.00000019
     atom   13 type  1   force =   -11.08548415   -0.03019789   -0.00000114
     atom   14 type  1   force =    -9.28461594   -7.50104306    0.00000084
     atom   15 type  1   force =     4.95962740   -9.69216329    0.00000118
     atom   16 type  1   force =     8.79595001   -4.32663451   -0.00000179
     atom   17 type  1   force =     4.88531744    9.72334095    0.00000205
     atom   18 type  1   force =    -2.89835332   10.58189219   -0.00000329
     atom   19 type  1   force =    -6.60686592   -9.64936471    0.00000451
     atom   20 type  1   force =     1.20055897  -10.60606871    0.00000318
     atom   21 type  1   force =     9.17246859    0.02702827    0.00000036
     atom   22 type  1   force =     7.50270097    7.61185498    0.00000137
     atom   23 type  1   force =    -6.67920404    9.61861051    0.00000022
     atom   24 type  1   force =   -10.66070602    4.23342172   -0.00000020
     The core correction contribution to forces
     atom    1 type  1   force =    -0.01167962    0.00051570    0.00000008
     atom    2 type  1   force =    -0.00853984   -0.00786861   -0.00000009
     atom    3 type  1   force =     0.00540688   -0.01043651    0.00000018
     atom    4 type  1   force =     0.01101737   -0.00341269   -0.00000015
     atom    5 type  1   force =     0.00641276    0.01002269    0.00000004
     atom    6 type  1   force =    -0.00251820    0.01133909    0.00000012
     atom    7 type  1   force =    -0.00640719   -0.01002338   -0.00000013
     atom    8 type  1   force =     0.00252052   -0.01133236   -0.00000011
     atom    9 type  1   force =     0.01167929   -0.00052474   -0.00000021
     atom   10 type  1   force =     0.00854426    0.00785408   -0.00000006
     atom   11 type  1   force =    -0.00541304    0.01044063    0.00000014
     atom   12 type  1   force =    -0.01100431    0.00340683    0.00000007
     atom   13 type  1   force =    -0.01167820    0.00052331   -0.00000021
     atom   14 type  1   force =    -0.00854209   -0.00785348    0.00000024
     atom   15 type  1   force =     0.00541416   -0.01044157    0.00000007
     atom   16 type  1   force =     0.01100121   -0.00340522   -0.00000016
     atom   17 type  1   force =     0.00640884    0.01002114    0.00000017
     atom   18 type  1   force =    -0.00251790    0.01133567   -0.00000013
     atom   19 type  1   force =    -0.00641187   -0.01002059    0.00000014
     atom   20 type  1   force =     0.00251824   -0.01134043    0.00000019
     atom   21 type  1   force =     0.01167607   -0.00051789   -0.00000003
     atom   22 type  1   force =     0.00854062    0.00786705    0.00000014
     atom   23 type  1   force =    -0.00540992    0.01043796   -0.00000010
     atom   24 type  1   force =    -0.01101525    0.00340982    0.00000000
     The Hubbard contrib.    to forces
     atom    1 type  1   force =     0.00000000    0.00000000    0.00000000
     atom    2 type  1   force =     0.00000000    0.00000000    0.00000000
     atom    3 type  1   force =     0.00000000    0.00000000    0.00000000
     atom    4 type  1   force =     0.00000000    0.00000000    0.00000000
     atom    5 type  1   force =     0.00000000    0.00000000    0.00000000
     atom    6 type  1   force =     0.00000000    0.00000000    0.00000000
     atom    7 type  1   force =     0.00000000    0.00000000    0.00000000
     atom    8 type  1   force =     0.00000000    0.00000000    0.00000000
     atom    9 type  1   force =     0.00000000    0.00000000    0.00000000
     atom   10 type  1   force =     0.00000000    0.00000000    0.00000000
     atom   11 type  1   force =     0.00000000    0.00000000    0.00000000
     atom   12 type  1   force =     0.00000000    0.00000000    0.00000000
     atom   13 type  1   force =     0.00000000    0.00000000    0.00000000
     atom   14 type  1   force =     0.00000000    0.00000000    0.00000000
     atom   15 type  1   force =     0.00000000    0.00000000    0.00000000
     atom   16 type  1   force =     0.00000000    0.00000000    0.00000000
     atom   17 type  1   force =     0.00000000    0.00000000    0.00000000
     atom   18 type  1   force =     0.00000000    0.00000000    0.00000000
     atom   19 type  1   force =     0.00000000    0.00000000    0.00000000
     atom   20 type  1   force =     0.00000000    0.00000000    0.00000000
     atom   21 type  1   force =     0.00000000    0.00000000    0.00000000
     atom   22 type  1   force =     0.00000000    0.00000000    0.00000000
     atom   23 type  1   force =     0.00000000    0.00000000    0.00000000
     atom   24 type  1   force =     0.00000000    0.00000000    0.00000000
     The SCF correction term to forces
     atom    1 type  1   force =     0.00053213    0.00011222   -0.00000091
     atom    2 type  1   force =     0.00053081    0.00004030    0.00000126
     atom    3 type  1   force =    -0.00013856    0.00012461    0.00000115
     atom    4 type  1   force =    -0.00041178   -0.00006833   -0.00000109
     atom    5 type  1   force =    -0.00031470   -0.00015434   -0.00000063
     atom    6 type  1   force =     0.00021893   -0.00012747    0.00000028
     atom    7 type  1   force =     0.00057904    0.00007450   -0.00000130
     atom    8 type  1   force =     0.00019707    0.00016955    0.00000004
     atom    9 type  1   force =    -0.00042988   -0.00004415    0.00000094
     atom   10 type  1   force =    -0.00034937   -0.00009036    0.00000221
     atom   11 type  1   force =     0.00052517   -0.00002498   -0.00000020
     atom   12 type  1   force =     0.00057300    0.00017128    0.00000147
     atom   13 type  1   force =    -0.00000664   -0.00021480   -0.00000066
     atom   14 type  1   force =     0.00005863   -0.00007012    0.00000116
     atom   15 type  1   force =    -0.00017704    0.00009812    0.00000033
     atom   16 type  1   force =    -0.00015175   -0.00014990    0.00000086
     atom   17 type  1   force =     0.00002198   -0.00014930   -0.00000056
     atom   18 type  1   force =    -0.00007650   -0.00009659    0.00000117
     atom   19 type  1   force =     0.00006350    0.00006007   -0.00000223
     atom   20 type  1   force =    -0.00009962    0.00013250   -0.00000066
     atom   21 type  1   force =    -0.00010593   -0.00023451   -0.00000070
     atom   22 type  1   force =     0.00003413   -0.00022153    0.00000041
     atom   23 type  1   force =    -0.00012814   -0.00015033   -0.00000039
     atom   24 type  1   force =    -0.00010871   -0.00020135    0.00000045

     Total force =     0.235733     Total SCF correction =     0.001660

     Writing all to output data dir ./calc.save/

     init_run     :      4.81s CPU      4.96s WALL (       1 calls)
     electrons    :     65.45s CPU     69.23s WALL (       1 calls)
     forces       :      2.49s CPU      2.54s WALL (       1 calls)

     Called by init_run:
     wfcinit      :      1.54s CPU      1.66s WALL (       1 calls)
     wfcinit:wfcr :      1.36s CPU      1.47s WALL (       5 calls)
     potinit      :      0.90s CPU      0.91s WALL (       1 calls)
     hinit0       :      2.07s CPU      2.09s WALL (       1 calls)

     Called by electrons:
     c_bands      :     58.36s CPU     61.56s WALL (      10 calls)
     sum_band     :      6.06s CPU      6.49s WALL (      10 calls)
     v_of_rho     :      0.91s CPU      0.96s WALL (      11 calls)
     v_h          :      0.04s CPU      0.05s WALL (      11 calls)
     v_xc         :      0.95s CPU      0.99s WALL (      12 calls)
     mix_rho      :      0.14s CPU      0.15s WALL (      10 calls)

     Called by c_bands:
     init_us_2    :      0.61s CPU      0.61s WALL (     110 calls)
     init_us_2:cp :      0.61s CPU      0.61s WALL (     110 calls)
     cegterg      :     56.79s CPU     59.97s WALL (      50 calls)

     Called by sum_band:
     sum_band:wei :      0.00s CPU      0.00s WALL (      10 calls)
     sum_band:loo :      5.99s CPU      6.41s WALL (      10 calls)
     sum_band:buf :      0.10s CPU      0.10s WALL (      50 calls)
     sum_band:ini :      0.27s CPU      0.28s WALL (      50 calls)

     Called by *egterg:
     cdiaghg      :      1.69s CPU      1.72s WALL (     374 calls)
     cegterg:over :      3.18s CPU      3.19s WALL (     324 calls)
     cegterg:upda :      3.08s CPU      3.09s WALL (     324 calls)
     cegterg:last :      3.38s CPU      3.41s WALL (     149 calls)
     cdiaghg:chol :      0.10s CPU      0.10s WALL (     374 calls)
     cdiaghg:inve :      0.02s CPU      0.02s WALL (     374 calls)
     cdiaghg:para :      0.17s CPU      0.18s WALL (     748 calls)
     h_psi        :     45.60s CPU     48.79s WALL (     379 calls)
     g_psi        :      0.26s CPU      0.27s WALL (     324 calls)

     Called by h_psi:
     h_psi:calbec :      3.20s CPU      3.24s WALL (     379 calls)
     vloc_psi     :     38.94s CPU     42.08s WALL (     379 calls)
     add_vuspsi   :      3.13s CPU      3.14s WALL (     379 calls)

     General routines
     calbec       :      3.49s CPU      3.53s WALL (     399 calls)
     fft          :      0.80s CPU      0.86s WALL (     120 calls)
     ffts         :      0.03s CPU      0.03s WALL (      10 calls)
     fftw         :     40.19s CPU     43.53s WALL (   25376 calls)

     Parallel routines

     PWSCF        :   1m13.00s CPU   1m18.68s WALL


   This run was terminated on:  11: 0:59   5Dec2022            

=------------------------------------------------------------------------------=
   JOB DONE.
=------------------------------------------------------------------------------=
