
     Program PWSCF v.7.0 starts on  5Dec2022 at 10:56:28 

     This program is part of the open-source Quantum ESPRESSO suite
     for quantum simulation of materials; please cite
         "P. Giannozzi et al., J. Phys.:Condens. Matter 21 395502 (2009);
         "P. Giannozzi et al., J. Phys.:Condens. Matter 29 465901 (2017);
         "P. Giannozzi et al., J. Chem. Phys. 152 154105 (2020);
          URL http://www.quantum-espresso.org", 
     in publications or presentations arising from this work. More details at
     http://www.quantum-espresso.org/quote

     Parallel version (MPI), running on    24 processors

     MPI processes distributed on     1 nodes
     R & G space division:  proc/nbgrp/npool/nimage =      24
     179659 MiB available memory on the printing compute node when the environment starts

     Reading input from pw.inp
Warning: card &CELL ignored
Warning: card / ignored

     Current dimensions of program PWSCF are:
     Max number of different atomic species (ntypx) = 10
     Max number of k-points (npk) =  40000
     Max angular momentum in pseudopotentials (lmaxx) =  4
     Message from routine cell_base_init:
     DEPRECATED: use true lattice parameter, not A to a.u. conversion factor

     IMPORTANT: XC functional enforced from input :
     Exchange-correlation= VDW-DF
                           (   1   4   4   0   1   0   0)
     Any further DFT definition will be discarded
     Please, verify this is what you really want


     Subspace diagonalization in iterative solution of the eigenvalue problem:
     one sub-group per band group will be used
     scalapack distributed-memory algorithm (size of sub-group:  4*  4 procs)


     Parallelization info
     --------------------
     sticks:   dense  smooth     PW     G-vecs:    dense   smooth      PW
     Min        1322    1322    359                36912    36912    5230
     Max        1324    1324    361                36913    36913    5231
     Sum       31773   31773   8641               885889   885889  125533

     Using Slab Decomposition



     bravais-lattice index     =            0
     lattice parameter (alat)  =       1.0000  a.u.
     unit-cell volume          =    2319.2355 (a.u.)^3
     number of atoms/cell      =           24
     number of atomic types    =            1
     number of electrons       =        96.00
     number of Kohn-Sham states=           62
     kinetic-energy cutoff     =     200.0000  Ry
     charge density cutoff     =     800.0000  Ry
     scf convergence threshold =      1.0E-06
     mixing beta               =       0.7000
     number of iterations used =            8  plain     mixing
     Exchange-correlation= VDW-DF
                           (   1   4   4   0   1   0   0)

     celldm(1)=   1.000000  celldm(2)=   0.000000  celldm(3)=   0.000000
     celldm(4)=   0.000000  celldm(5)=   0.000000  celldm(6)=   0.000000

     crystal axes: (cart. coord. in units of alat)
               a(1) = (  31.187375   0.000000   0.000000 )  
               a(2) = (   0.000000  16.000000   0.000000 )  
               a(3) = (   0.000000   0.000000   4.647785 )  

     reciprocal axes: (cart. coord. in units 2 pi/alat)
               b(1) = (  0.032064  0.000000  0.000000 )  
               b(2) = (  0.000000  0.062500  0.000000 )  
               b(3) = (  0.000000  0.000000  0.215156 )  


     PseudoPot. # 1 for C  read from file:
     .././06_C_4_1.2_1.2_pbe_n_v1.0.upf
     MD5 check sum: 7e0e17a2517474b8bea671dc4b65026c
     Pseudo is Norm-conserving + core correction, Zval =  4.0
     Generated using ONCVPSP code by D. R. Hamann
     Using radial grid of 1246 points,  4 beta functions with: 
                l(1) =   0
                l(2) =   0
                l(3) =   1
                l(4) =   1

     atomic species   valence    mass     pseudopotential
        C              4.00    12.00000     C ( 1.00)

     No symmetry found


                                    s                        frac. trans.

      isym =  1     identity                                     

 cryst.   s( 1) = (     1          0          0      )
                  (     0          1          0      )
                  (     0          0          1      )

 cart.    s( 1) = (  1.0000000  0.0000000  0.0000000 )
                  (  0.0000000  1.0000000  0.0000000 )
                  (  0.0000000  0.0000000  1.0000000 )


   Cartesian axes

     site n.     atom                  positions (alat units)
         1           C   tau(   1) = (  11.8436874   8.0000000   0.0000000  )
         2           C   tau(   2) = (  10.9444353  10.4706746   0.0000000  )
         3           C   tau(   3) = (   6.0781563  11.3287309   0.0000000  )
         4           C   tau(   4) = (   4.3881153   9.3146185   0.0000000  )
         5           C   tau(   5) = (   6.0781563   4.6712691   0.0000000  )
         6           C   tau(   6) = (   8.6674493   4.2147069   0.0000000  )
         7           C   tau(   7) = (   9.9218437  11.3287309   2.3238926  )
         8           C   tau(   8) = (   7.3325507  11.7852931   2.3238926  )
         9           C   tau(   9) = (   4.1563126   8.0000000   2.3238926  )
        10           C   tau(  10) = (   5.0555647   5.5293254   2.3238926  )
        11           C   tau(  11) = (   9.9218437   4.6712691   2.3238926  )
        12           C   tau(  12) = (  11.6118847   6.6853815   2.3238926  )
        13           C   tau(  13) = (  27.0310621   8.0000000   0.0000000  )
        14           C   tau(  14) = (  26.1318101  10.4706746   0.0000000  )
        15           C   tau(  15) = (  21.2655311  11.3287309   0.0000000  )
        16           C   tau(  16) = (  19.5754901   9.3146185   0.0000000  )
        17           C   tau(  17) = (  21.2655311   4.6712691   0.0000000  )
        18           C   tau(  18) = (  23.8548240   4.2147069   0.0000000  )
        19           C   tau(  19) = (  25.1092184  11.3287309   2.3238926  )
        20           C   tau(  20) = (  22.5199254  11.7852931   2.3238926  )
        21           C   tau(  21) = (  19.3436874   8.0000000   2.3238926  )
        22           C   tau(  22) = (  20.2429394   5.5293254   2.3238926  )
        23           C   tau(  23) = (  25.1092184   4.6712691   2.3238926  )
        24           C   tau(  24) = (  26.7992594   6.6853815   2.3238926  )

   Crystallographic axes

     site n.     atom                  positions (cryst. coord.)
         1           C   tau(   1) = (  0.3797590  0.5000000  0.0000000  )
         2           C   tau(   2) = (  0.3509252  0.6544172  0.0000000  )
         3           C   tau(   3) = (  0.1948916  0.7080457  0.0000000  )
         4           C   tau(   4) = (  0.1407017  0.5821637  0.0000000  )
         5           C   tau(   5) = (  0.1948916  0.2919543  0.0000000  )
         6           C   tau(   6) = (  0.2779153  0.2634192  0.0000000  )
         7           C   tau(   7) = (  0.3181365  0.7080457  0.5000000  )
         8           C   tau(   8) = (  0.2351128  0.7365808  0.5000000  )
         9           C   tau(   9) = (  0.1332691  0.5000000  0.5000000  )
        10           C   tau(  10) = (  0.1621029  0.3455828  0.5000000  )
        11           C   tau(  11) = (  0.3181365  0.2919543  0.5000000  )
        12           C   tau(  12) = (  0.3723265  0.4178363  0.5000000  )
        13           C   tau(  13) = (  0.8667309  0.5000000  0.0000000  )
        14           C   tau(  14) = (  0.8378971  0.6544172  0.0000000  )
        15           C   tau(  15) = (  0.6818635  0.7080457  0.0000000  )
        16           C   tau(  16) = (  0.6276735  0.5821637  0.0000000  )
        17           C   tau(  17) = (  0.6818635  0.2919543  0.0000000  )
        18           C   tau(  18) = (  0.7648872  0.2634192  0.0000000  )
        19           C   tau(  19) = (  0.8051084  0.7080457  0.5000000  )
        20           C   tau(  20) = (  0.7220847  0.7365808  0.5000000  )
        21           C   tau(  21) = (  0.6202410  0.5000000  0.5000000  )
        22           C   tau(  22) = (  0.6490748  0.3455828  0.5000000  )
        23           C   tau(  23) = (  0.8051084  0.2919543  0.5000000  )
        24           C   tau(  24) = (  0.8592983  0.4178363  0.5000000  )

     number of k points=     5  Fermi-Dirac smearing, width (Ry)=  0.0020
                       cart. coord. in units 2pi/alat
        k(    1) = (   0.0000000   0.0000000   0.0107578), wk =   0.4000000
        k(    2) = (   0.0000000   0.0000000   0.0322734), wk =   0.4000000
        k(    3) = (   0.0000000   0.0000000   0.0537891), wk =   0.4000000
        k(    4) = (   0.0000000   0.0000000   0.0753047), wk =   0.4000000
        k(    5) = (   0.0000000   0.0000000   0.0968203), wk =   0.4000000

                       cryst. coord.
        k(    1) = (   0.0000000   0.0000000   0.0500000), wk =   0.4000000
        k(    2) = (   0.0000000   0.0000000   0.1500000), wk =   0.4000000
        k(    3) = (   0.0000000   0.0000000   0.2500000), wk =   0.4000000
        k(    4) = (   0.0000000   0.0000000   0.3500000), wk =   0.4000000
        k(    5) = (   0.0000000   0.0000000   0.4500000), wk =   0.4000000

     Dense  grid:   885889 G-vectors     FFT dimensions: ( 288, 150,  45)

     Dynamical RAM for                 wfc:       4.37 MB

     Dynamical RAM for     wfc (w. buffer):      26.20 MB

     Dynamical RAM for           str. fact:       0.56 MB

     Dynamical RAM for           local pot:       0.00 MB

     Dynamical RAM for          nlocal pot:      13.52 MB

     Dynamical RAM for                qrad:       0.65 MB

     Dynamical RAM for          rho,v,vnew:       3.67 MB

     Dynamical RAM for               rhoin:       1.22 MB

     Dynamical RAM for            rho*nmix:       9.01 MB

     Dynamical RAM for           G-vectors:       2.39 MB

     Dynamical RAM for          h,s,v(r/c):       0.04 MB

     Dynamical RAM for          <psi|beta>:       0.18 MB

     Dynamical RAM for                 psi:       8.73 MB

     Dynamical RAM for                hpsi:       8.73 MB

     Dynamical RAM for      wfcinit/wfcrot:       8.82 MB

     Estimated static dynamical RAM per process >      52.63 MB

     Estimated max dynamical RAM per process >      79.34 MB

     Estimated total dynamical RAM >       1.86 GB

     Initial potential from superposition of free atoms

     starting charge      95.9989, renormalised to      96.0000


     %%%%%%%%%%%%%%%%%%%%%%%%%%%%%%%%%%%%%%%%%%%%%%%%%%%%%%%%%%%%%%%%%%%%%%%%
     %                                                                      %
     % You are using vdW-DF, which was implemented by the Thonhauser group. %
     % Please cite the following two papers that made this development      %
     % possible and the two reviews that describe the various versions:     %
     %                                                                      %
     %   T. Thonhauser et al., PRL 115, 136402 (2015).                      %
     %   T. Thonhauser et al., PRB 76, 125112 (2007).                       %
     %   K. Berland et al., Rep. Prog. Phys. 78, 066501 (2015).             %
     %   D.C. Langreth et al., J. Phys.: Condens. Matter 21, 084203 (2009). %
     %                                                                      %
     %                                                                      %
     % If you are calculating the stress with vdW-DF, please also cite:     %
     %                                                                      %
     %   R. Sabatini et al., J. Phys.: Condens. Matter 24, 424209 (2012).   %
     %                                                                      %
     %%%%%%%%%%%%%%%%%%%%%%%%%%%%%%%%%%%%%%%%%%%%%%%%%%%%%%%%%%%%%%%%%%%%%%%%


     Carrying out vdW-DF run using the following parameters:
     Nqs    =  20  Npoints =  1024  r_max =  100.000
     q_mesh =  0.00001000  0.04494208  0.09755937  0.15916263
               0.23128650  0.31572767  0.41458969  0.53033537
               0.66584808  0.82450364  1.01025438  1.22772762
               1.48234092  1.78043706  2.12944203  2.53805004
               3.01644009  3.57652955  4.23227104  5.00000000


     -----------------------------------------------
     Non-local corr. energy    =       1.08741050 Ry
     -----------------------------------------------

     Starting wfcs are random

     total cpu time spent up to now is        9.8 secs

     per-process dynamical memory:   105.0 Mb

     Self-consistent Calculation

     iteration #  1     ecut=   200.00 Ry     beta= 0.70
     Davidson diagonalization with overlap

---- Real-time Memory Report at c_bands before calling an iterative solver
           166 MiB given to the printing process from OS
           102 MiB allocation reported by mallinfo(arena+hblkhd)
        177140 MiB available memory on the node where the printing process lives
------------------
     ethr =  1.00E-02,  avg # of iterations = 14.6


     -----------------------------------------------
     Non-local corr. energy    =       1.24822025 Ry
     -----------------------------------------------


     total cpu time spent up to now is       28.6 secs

     total energy              =    -289.76945979 Ry
     estimated scf accuracy    <       2.77295873 Ry

     iteration #  2     ecut=   200.00 Ry     beta= 0.70
     Davidson diagonalization with overlap

---- Real-time Memory Report at c_bands before calling an iterative solver
           205 MiB given to the printing process from OS
           132 MiB allocation reported by mallinfo(arena+hblkhd)
        176415 MiB available memory on the node where the printing process lives
------------------
     ethr =  2.89E-03,  avg # of iterations =  3.4


     -----------------------------------------------
     Non-local corr. energy    =       1.24235654 Ry
     -----------------------------------------------


     total cpu time spent up to now is       34.7 secs

     total energy              =    -290.19251796 Ry
     estimated scf accuracy    <       0.56983737 Ry

     iteration #  3     ecut=   200.00 Ry     beta= 0.70
     Davidson diagonalization with overlap

---- Real-time Memory Report at c_bands before calling an iterative solver
           207 MiB given to the printing process from OS
           133 MiB allocation reported by mallinfo(arena+hblkhd)
        176386 MiB available memory on the node where the printing process lives
------------------
     ethr =  5.94E-04,  avg # of iterations =  4.0


     -----------------------------------------------
     Non-local corr. energy    =       1.24653480 Ry
     -----------------------------------------------


     total cpu time spent up to now is       40.8 secs

     total energy              =    -290.38895323 Ry
     estimated scf accuracy    <       0.16659564 Ry

     iteration #  4     ecut=   200.00 Ry     beta= 0.70
     Davidson diagonalization with overlap

---- Real-time Memory Report at c_bands before calling an iterative solver
           208 MiB given to the printing process from OS
           134 MiB allocation reported by mallinfo(arena+hblkhd)
        176358 MiB available memory on the node where the printing process lives
------------------
     ethr =  1.74E-04,  avg # of iterations =  5.0


     -----------------------------------------------
     Non-local corr. energy    =       1.24842401 Ry
     -----------------------------------------------


     total cpu time spent up to now is       46.6 secs

     total energy              =    -290.42096513 Ry
     estimated scf accuracy    <       0.00339149 Ry

     iteration #  5     ecut=   200.00 Ry     beta= 0.70
     Davidson diagonalization with overlap

---- Real-time Memory Report at c_bands before calling an iterative solver
           209 MiB given to the printing process from OS
           135 MiB allocation reported by mallinfo(arena+hblkhd)
        176331 MiB available memory on the node where the printing process lives
------------------
     c_bands:  3 eigenvalues not converged
     ethr =  3.53E-06,  avg # of iterations = 12.6


     -----------------------------------------------
     Non-local corr. energy    =       1.24917449 Ry
     -----------------------------------------------


     total cpu time spent up to now is       55.5 secs

     total energy              =    -290.42036664 Ry
     estimated scf accuracy    <       0.02496311 Ry

     iteration #  6     ecut=   200.00 Ry     beta= 0.70
     Davidson diagonalization with overlap

---- Real-time Memory Report at c_bands before calling an iterative solver
           210 MiB given to the printing process from OS
           137 MiB allocation reported by mallinfo(arena+hblkhd)
        176303 MiB available memory on the node where the printing process lives
------------------
     ethr =  3.53E-06,  avg # of iterations =  7.8


     -----------------------------------------------
     Non-local corr. energy    =       1.24916620 Ry
     -----------------------------------------------


     total cpu time spent up to now is       62.0 secs

     total energy              =    -290.42342067 Ry
     estimated scf accuracy    <       0.00098675 Ry

     iteration #  7     ecut=   200.00 Ry     beta= 0.70
     Davidson diagonalization with overlap

---- Real-time Memory Report at c_bands before calling an iterative solver
           211 MiB given to the printing process from OS
           138 MiB allocation reported by mallinfo(arena+hblkhd)
        176272 MiB available memory on the node where the printing process lives
------------------
     ethr =  1.03E-06,  avg # of iterations =  2.0


     -----------------------------------------------
     Non-local corr. energy    =       1.24904009 Ry
     -----------------------------------------------


     total cpu time spent up to now is       66.8 secs

     total energy              =    -290.42356991 Ry
     estimated scf accuracy    <       0.00009839 Ry

     iteration #  8     ecut=   200.00 Ry     beta= 0.70
     Davidson diagonalization with overlap

---- Real-time Memory Report at c_bands before calling an iterative solver
           212 MiB given to the printing process from OS
           139 MiB allocation reported by mallinfo(arena+hblkhd)
        176248 MiB available memory on the node where the printing process lives
------------------
     ethr =  1.02E-07,  avg # of iterations =  2.2


     -----------------------------------------------
     Non-local corr. energy    =       1.24902184 Ry
     -----------------------------------------------


     total cpu time spent up to now is       72.2 secs

     total energy              =    -290.42359145 Ry
     estimated scf accuracy    <       0.00001180 Ry

     iteration #  9     ecut=   200.00 Ry     beta= 0.70
     Davidson diagonalization with overlap

---- Real-time Memory Report at c_bands before calling an iterative solver
           214 MiB given to the printing process from OS
           140 MiB allocation reported by mallinfo(arena+hblkhd)
        176217 MiB available memory on the node where the printing process lives
------------------
     ethr =  1.23E-08,  avg # of iterations =  3.0


     -----------------------------------------------
     Non-local corr. energy    =       1.24902184 Ry
     -----------------------------------------------


     total cpu time spent up to now is       77.4 secs

     total energy              =    -290.42359440 Ry
     estimated scf accuracy    <       0.00000136 Ry

     iteration # 10     ecut=   200.00 Ry     beta= 0.70
     Davidson diagonalization with overlap

---- Real-time Memory Report at c_bands before calling an iterative solver
           215 MiB given to the printing process from OS
           141 MiB allocation reported by mallinfo(arena+hblkhd)
        176194 MiB available memory on the node where the printing process lives
------------------
     ethr =  1.42E-09,  avg # of iterations =  4.0


     -----------------------------------------------
     Non-local corr. energy    =       1.24902368 Ry
     -----------------------------------------------


     total cpu time spent up to now is       83.2 secs

     End of self-consistent calculation

          k = 0.0000 0.0000 0.0108 (110949 PWs)   bands (ev):

   -17.9236 -17.9206 -16.9022 -16.8986 -16.8936 -16.8905 -14.4315 -14.4237
   -14.4220 -14.4215 -11.5542 -11.5459 -10.5604 -10.5585  -7.3108  -7.3007
    -7.2938  -7.2928  -6.0051  -5.9463  -5.0768  -4.9986  -4.9950  -4.9741
    -4.7425  -4.7407  -3.9575  -3.9559  -3.9501  -3.9483  -2.5212  -2.4749
    -2.4697  -2.4669  -1.9886  -1.9861  -1.9827  -1.9811  -1.2445  -1.0961
    -1.0631  -1.0335  -0.8552  -0.8436  -0.7175  -0.7158   1.5971   1.7120
     3.7712   3.9237   5.0352   5.5151   6.0887   6.1892   6.3542   6.5402
     6.6430   6.9172   7.0039   7.4598   7.5539   7.6312

     occupation numbers 
     1.0000   1.0000   1.0000   1.0000   1.0000   1.0000   1.0000   1.0000
     1.0000   1.0000   1.0000   1.0000   1.0000   1.0000   1.0000   1.0000
     1.0000   1.0000   1.0000   1.0000   1.0000   1.0000   1.0000   1.0000
     1.0000   1.0000   1.0000   1.0000   1.0000   1.0000   1.0000   1.0000
     1.0000   1.0000   1.0000   1.0000   1.0000   1.0000   1.0000   1.0000
     1.0000   1.0000   1.0000   1.0000   1.0000   1.0000   1.0000   1.0000
     0.0000   0.0000   0.0000   0.0000   0.0000   0.0000   0.0000   0.0000
     0.0000   0.0000   0.0000   0.0000   0.0000   0.0000

          k = 0.0000 0.0000 0.0323 (110889 PWs)   bands (ev):

   -17.5637 -17.5607 -16.5510 -16.5475 -16.5424 -16.5393 -14.0991 -14.0916
   -14.0900 -14.0894 -11.2509 -11.2430 -10.3024 -10.3005  -7.2184  -7.2108
    -7.2044  -7.2040  -6.0972  -6.0953  -5.6013  -5.5446  -5.1693  -5.1673
    -5.1627  -5.1610  -4.8800  -4.8263  -4.8236  -4.8066  -3.3920  -3.3624
    -3.3576  -3.3549  -2.2684  -2.2303  -2.2255  -2.2234  -1.9010  -1.8990
    -1.4607  -1.4554  -0.9039  -0.7612  -0.7222  -0.7017   1.9620   2.0743
     3.6803   3.7928   5.4850   5.9562   6.0749   6.1112   6.2093   6.4076
     6.9881   7.1185   7.1358   7.1953   7.2519   7.2702

     occupation numbers 
     1.0000   1.0000   1.0000   1.0000   1.0000   1.0000   1.0000   1.0000
     1.0000   1.0000   1.0000   1.0000   1.0000   1.0000   1.0000   1.0000
     1.0000   1.0000   1.0000   1.0000   1.0000   1.0000   1.0000   1.0000
     1.0000   1.0000   1.0000   1.0000   1.0000   1.0000   1.0000   1.0000
     1.0000   1.0000   1.0000   1.0000   1.0000   1.0000   1.0000   1.0000
     1.0000   1.0000   1.0000   1.0000   1.0000   1.0000   1.0000   1.0000
     0.0000   0.0000   0.0000   0.0000   0.0000   0.0000   0.0000   0.0000
     0.0000   0.0000   0.0000   0.0000   0.0000   0.0000

          k = 0.0000 0.0000 0.0538 (110759 PWs)   bands (ev):

   -16.8482 -16.8453 -15.8532 -15.8499 -15.8447 -15.8417 -13.4437 -13.4367
   -13.4352 -13.4346 -10.6466 -10.6393 -10.0204 -10.0185  -7.9189  -7.9175
    -7.9130  -7.9114  -7.7875  -7.7856  -5.9633  -5.9596  -5.9534  -5.9529
    -5.7301  -5.7297  -5.7267  -5.7252  -4.8481  -4.7991  -3.8478  -3.8007
    -3.7979  -3.7845  -3.6281  -3.6256  -2.5168  -2.5063  -2.2484  -2.1833
    -2.1741  -2.1719  -0.2808  -0.1538  -0.1195  -0.1007   2.6649   2.7791
     3.0407   3.1067   5.3284   5.4180   5.4629   5.5325   6.3351   6.4077
     6.4185   6.4739   6.5313   6.9306   7.2402   7.2649

     occupation numbers 
     1.0000   1.0000   1.0000   1.0000   1.0000   1.0000   1.0000   1.0000
     1.0000   1.0000   1.0000   1.0000   1.0000   1.0000   1.0000   1.0000
     1.0000   1.0000   1.0000   1.0000   1.0000   1.0000   1.0000   1.0000
     1.0000   1.0000   1.0000   1.0000   1.0000   1.0000   1.0000   1.0000
     1.0000   1.0000   1.0000   1.0000   1.0000   1.0000   1.0000   1.0000
     1.0000   1.0000   1.0000   1.0000   1.0000   1.0000   0.9999   0.9916
     0.0078   0.0007   0.0000   0.0000   0.0000   0.0000   0.0000   0.0000
     0.0000   0.0000   0.0000   0.0000   0.0000   0.0000

          k = 0.0000 0.0000 0.0753 (110667 PWs)   bands (ev):

   -15.7872 -15.7844 -14.8209 -14.8178 -14.8126 -14.8097 -12.5106 -12.5041
   -12.5034 -12.5020 -10.9654 -10.9632  -9.7463  -9.7400  -9.7100  -9.7083
    -9.7036  -9.7017  -8.0356  -8.0338  -7.5909  -7.5886  -7.5868  -7.5861
    -5.5217  -5.5176  -5.5123  -5.5118  -5.4345  -5.4312  -4.4905  -4.4821
    -3.6883  -3.6813  -3.6794  -3.6736  -3.0886  -3.0422  -1.7892  -1.6964
    -1.6866  -1.6751   0.4182   0.5036   0.5330   0.5514   1.6731   1.7069
     3.6937   3.7823   4.2366   4.2566   4.3090   4.3100   5.4022   5.4055
     5.4343   5.4663   6.9556   6.9661   7.9481   8.3063

     occupation numbers 
     1.0000   1.0000   1.0000   1.0000   1.0000   1.0000   1.0000   1.0000
     1.0000   1.0000   1.0000   1.0000   1.0000   1.0000   1.0000   1.0000
     1.0000   1.0000   1.0000   1.0000   1.0000   1.0000   1.0000   1.0000
     1.0000   1.0000   1.0000   1.0000   1.0000   1.0000   1.0000   1.0000
     1.0000   1.0000   1.0000   1.0000   1.0000   1.0000   1.0000   1.0000
     1.0000   1.0000   1.0000   1.0000   1.0000   1.0000   1.0000   1.0000
     0.0000   0.0000   0.0000   0.0000   0.0000   0.0000   0.0000   0.0000
     0.0000   0.0000   0.0000   0.0000   0.0000   0.0000

          k = 0.0000 0.0000 0.0968 (110587 PWs)   bands (ev):

   -14.4016 -14.3990 -13.4869 -13.4843 -13.4788 -13.4760 -12.7394 -12.7370
   -12.0796 -12.0780 -12.0722 -12.0697 -10.7141 -10.7110 -10.7088 -10.7085
    -9.3758  -9.3726  -9.3708  -9.3700  -8.5605  -8.5552  -7.1092  -7.1050
    -7.0404  -7.0387  -5.7208  -5.7191  -4.8007  -4.7985  -4.7947  -4.7939
    -4.0980  -4.0965  -4.0950  -4.0936  -1.8032  -1.7555  -0.6812  -0.6046
    -0.5935  -0.5780  -0.0770  -0.0372   0.4296   0.4437   0.4806   0.4984
     3.7098   3.7587   3.7909   3.8088   4.3908   4.4381   4.4560   4.4760
     4.9027   4.9767   6.0988   6.1456   9.8237   9.9645

     occupation numbers 
     1.0000   1.0000   1.0000   1.0000   1.0000   1.0000   1.0000   1.0000
     1.0000   1.0000   1.0000   1.0000   1.0000   1.0000   1.0000   1.0000
     1.0000   1.0000   1.0000   1.0000   1.0000   1.0000   1.0000   1.0000
     1.0000   1.0000   1.0000   1.0000   1.0000   1.0000   1.0000   1.0000
     1.0000   1.0000   1.0000   1.0000   1.0000   1.0000   1.0000   1.0000
     1.0000   1.0000   1.0000   1.0000   1.0000   1.0000   1.0000   1.0000
     0.0000   0.0000   0.0000   0.0000   0.0000   0.0000   0.0000   0.0000
     0.0000   0.0000   0.0000   0.0000   0.0000   0.0000

     the Fermi energy is     2.9090 ev

!    total energy              =    -290.42359455 Ry
     estimated scf accuracy    <       0.00000052 Ry
     smearing contrib. (-TS)   =      -0.00008104 Ry
     internal energy E=F+TS    =    -290.42351351 Ry

     The total energy is F=E-TS. E is the sum of the following terms:
     one-electron contribution =    -634.27484822 Ry
     hartree contribution      =     350.38099968 Ry
     xc contribution           =    -105.91509224 Ry
     ewald contribution        =      99.38542727 Ry

     convergence has been achieved in  10 iterations


     -----------------------------------------------
     Non-local corr. energy    =       1.24902368 Ry
     -----------------------------------------------


     Forces acting on atoms (cartesian axes, Ry/au):

     atom    1 type  1   force =     0.05125364   -0.01778661   -0.00000048
     atom    2 type  1   force =     0.02605827    0.04538092    0.00000064
     atom    3 type  1   force =    -0.01130988    0.05378352    0.00000109
     atom    4 type  1   force =    -0.05126314    0.00006074   -0.00000369
     atom    5 type  1   force =    -0.04280245   -0.03816447   -0.00000031
     atom    6 type  1   force =     0.02790057   -0.04523398   -0.00000010
     atom    7 type  1   force =     0.04291468    0.03827285   -0.00000050
     atom    8 type  1   force =    -0.02791114    0.04507582    0.00000148
     atom    9 type  1   force =    -0.05140154    0.01768185   -0.00000274
     atom   10 type  1   force =    -0.02574201   -0.04531639   -0.00000829
     atom   11 type  1   force =     0.01136538   -0.05386511    0.00000195
     atom   12 type  1   force =     0.05123156   -0.00007681   -0.00000250
     atom   13 type  1   force =     0.05140541   -0.01767539    0.00000442
     atom   14 type  1   force =     0.02573940    0.04531551   -0.00000111
     atom   15 type  1   force =    -0.01136485    0.05386908    0.00000065
     atom   16 type  1   force =    -0.05122624    0.00005336    0.00000254
     atom   17 type  1   force =    -0.04293905   -0.03828241   -0.00000473
     atom   18 type  1   force =     0.02789357   -0.04508269    0.00000581
     atom   19 type  1   force =     0.04280685    0.03817940    0.00000333
     atom   20 type  1   force =    -0.02789603    0.04522556   -0.00000226
     atom   21 type  1   force =    -0.05124700    0.01779579    0.00000193
     atom   22 type  1   force =    -0.02605135   -0.04537359    0.00000240
     atom   23 type  1   force =     0.01130725   -0.05379636    0.00000079
     atom   24 type  1   force =     0.05127811   -0.00004060   -0.00000031
     The non-local contrib.  to forces
     atom    1 type  1   force =     0.03610235    0.00679701   -0.00000092
     atom    2 type  1   force =     0.02990938    0.01740659    0.00000130
     atom    3 type  1   force =    -0.02399087    0.02997192   -0.00000016
     atom    4 type  1   force =    -0.02849977    0.01591616   -0.00000349
     atom    5 type  1   force =    -0.01578277   -0.03862003    0.00000040
     atom    6 type  1   force =    -0.00055791   -0.03427120    0.00000052
     atom    7 type  1   force =     0.01573805    0.03887703   -0.00000081
     atom    8 type  1   force =     0.00047373    0.03392094    0.00000318
     atom    9 type  1   force =    -0.03638867   -0.00659141   -0.00000109
     atom   10 type  1   force =    -0.02978762   -0.01690813   -0.00000572
     atom   11 type  1   force =     0.02429697   -0.03022643   -0.00000028
     atom   12 type  1   force =     0.02834145   -0.01565145   -0.00000311
     atom   13 type  1   force =     0.03638373    0.00664610    0.00000520
     atom   14 type  1   force =     0.02977419    0.01691059   -0.00000030
     atom   15 type  1   force =    -0.02434233    0.03022797   -0.00000136
     atom   16 type  1   force =    -0.02831295    0.01559642    0.00000409
     atom   17 type  1   force =    -0.01581866   -0.03880882   -0.00000753
     atom   18 type  1   force =    -0.00055961   -0.03398718    0.00000905
     atom   19 type  1   force =     0.01576413    0.03862213   -0.00000084
     atom   20 type  1   force =     0.00053995    0.03427553   -0.00000318
     atom   21 type  1   force =    -0.03604739   -0.00673687    0.00000287
     atom   22 type  1   force =    -0.02998097   -0.01734638   -0.00000021
     atom   23 type  1   force =     0.02405184   -0.03000370    0.00000275
     atom   24 type  1   force =     0.02849645   -0.01583417    0.00000044
     The ionic contribution  to forces
     atom    1 type  1   force =     9.19579241    0.00122359   -0.00000000
     atom    2 type  1   force =     7.50450674    7.64621014   -0.00000000
     atom    3 type  1   force =    -6.66975480    9.65048431    0.00000000
     atom    4 type  1   force =   -10.69178200    4.21914207   -0.00000000
     atom    5 type  1   force =    -6.63936793   -9.65576480   -0.00000000
     atom    6 type  1   force =     1.23136409  -10.62474571   -0.00000000
     atom    7 type  1   force =     4.91801354    9.72964593   -0.00000000
     atom    8 type  1   force =    -2.92935206   10.60068960   -0.00000000
     atom    9 type  1   force =   -11.10890880   -0.00505452    0.00000000
     atom   10 type  1   force =    -9.28618888   -7.53595908    0.00000000
     atom   11 type  1   force =     4.94976991   -9.72400481   -0.00000000
     atom   12 type  1   force =     8.82685950   -4.31289621   -0.00000000
     atom   13 type  1   force =    11.10890880    0.00505452   -0.00000000
     atom   14 type  1   force =     9.28618888    7.53595908   -0.00000000
     atom   15 type  1   force =    -4.94976991    9.72400481   -0.00000000
     atom   16 type  1   force =    -8.82685950    4.31289621   -0.00000000
     atom   17 type  1   force =    -4.91801354   -9.72964593   -0.00000000
     atom   18 type  1   force =     2.92935206  -10.60068960   -0.00000000
     atom   19 type  1   force =     6.63936793    9.65576480   -0.00000000
     atom   20 type  1   force =    -1.23136409   10.62474571   -0.00000000
     atom   21 type  1   force =    -9.19579241   -0.00122359    0.00000000
     atom   22 type  1   force =    -7.50450674   -7.64621014    0.00000000
     atom   23 type  1   force =     6.66975480   -9.65048431   -0.00000000
     atom   24 type  1   force =    10.69178200   -4.21914207    0.00000000
     The local contribution  to forces
     atom    1 type  1   force =    -9.16913173   -0.02633220    0.00000045
     atom    2 type  1   force =    -7.50004075   -7.61005307   -0.00000259
     atom    3 type  1   force =     6.67680440   -9.61589579    0.00000010
     atom    4 type  1   force =    10.65802539   -4.23122980    0.00000310
     atom    5 type  1   force =     6.60604048    9.64576856   -0.00000170
     atom    6 type  1   force =    -1.20078454   10.60202552   -0.00000245
     atom    7 type  1   force =    -4.88502237   -9.71966310    0.00000144
     atom    8 type  1   force =     2.89817882  -10.57783395   -0.00000200
     atom    9 type  1   force =    11.08216444    0.02974053   -0.00000191
     atom   10 type  1   force =     9.28159207    7.49946399   -0.00000521
     atom   11 type  1   force =    -4.95765276    9.68943210    0.00000344
     atom   12 type  1   force =    -8.79329321    4.32451693   -0.00000003
     atom   13 type  1   force =   -11.08160635   -0.02956991    0.00000068
     atom   14 type  1   force =    -9.28124234   -7.49930664   -0.00000457
     atom   15 type  1   force =     4.95724601   -9.68946792    0.00000092
     atom   16 type  1   force =     8.79275723   -4.32447700   -0.00000163
     atom   17 type  1   force =     4.88440826    9.71963150    0.00000233
     atom   18 type  1   force =    -2.89824805   10.57776954   -0.00000446
     atom   19 type  1   force =    -6.60579284   -9.64562476    0.00000622
     atom   20 type  1   force =     1.20057326  -10.60200384    0.00000017
     atom   21 type  1   force =     9.16856009    0.02644273   -0.00000235
     atom   22 type  1   force =     7.49947459    7.61018206    0.00000289
     atom   23 type  1   force =    -6.67656058    9.61588811   -0.00000237
     atom   24 type  1   force =   -10.65738930    4.23139970   -0.00000228
     The core correction contribution to forces
     atom    1 type  1   force =    -0.01207151    0.00039496    0.00000003
     atom    2 type  1   force =    -0.00893100   -0.00804352   -0.00000005
     atom    3 type  1   force =     0.00570966   -0.01075628    0.00000005
     atom    4 type  1   force =     0.01133350   -0.00363874    0.00000002
     atom    5 type  1   force =     0.00653538    0.01046965   -0.00000010
     atom    6 type  1   force =    -0.00246211    0.01174239   -0.00000008
     atom    7 type  1   force =    -0.00653751   -0.01048226    0.00000002
     atom    8 type  1   force =     0.00246400   -0.01172729   -0.00000015
     atom    9 type  1   force =     0.01208304   -0.00040361   -0.00000015
     atom   10 type  1   force =     0.00891922    0.00801984   -0.00000001
     atom   11 type  1   force =    -0.00572989    0.01077103    0.00000014
     atom   12 type  1   force =    -0.01132533    0.00362856    0.00000007
     atom   13 type  1   force =    -0.01208067    0.00040184   -0.00000020
     atom   14 type  1   force =    -0.00891795   -0.00801922   -0.00000004
     atom   15 type  1   force =     0.00573064   -0.01077125    0.00000010
     atom   16 type  1   force =     0.01132154   -0.00362560   -0.00000016
     atom   17 type  1   force =     0.00653927    0.01047871    0.00000036
     atom   18 type  1   force =    -0.00245986    0.01173071   -0.00000038
     atom   19 type  1   force =    -0.00653369   -0.01046870    0.00000030
     atom   20 type  1   force =     0.00246226   -0.01174327    0.00000015
     atom   21 type  1   force =     0.01206619   -0.00039793   -0.00000013
     atom   22 type  1   force =     0.00893244    0.00804089    0.00000016
     atom   23 type  1   force =    -0.00571281    0.01075806   -0.00000020
     atom   24 type  1   force =    -0.01133098    0.00363534    0.00000001
     The Hubbard contrib.    to forces
     atom    1 type  1   force =     0.00000000    0.00000000    0.00000000
     atom    2 type  1   force =     0.00000000    0.00000000    0.00000000
     atom    3 type  1   force =     0.00000000    0.00000000    0.00000000
     atom    4 type  1   force =     0.00000000    0.00000000    0.00000000
     atom    5 type  1   force =     0.00000000    0.00000000    0.00000000
     atom    6 type  1   force =     0.00000000    0.00000000    0.00000000
     atom    7 type  1   force =     0.00000000    0.00000000    0.00000000
     atom    8 type  1   force =     0.00000000    0.00000000    0.00000000
     atom    9 type  1   force =     0.00000000    0.00000000    0.00000000
     atom   10 type  1   force =     0.00000000    0.00000000    0.00000000
     atom   11 type  1   force =     0.00000000    0.00000000    0.00000000
     atom   12 type  1   force =     0.00000000    0.00000000    0.00000000
     atom   13 type  1   force =     0.00000000    0.00000000    0.00000000
     atom   14 type  1   force =     0.00000000    0.00000000    0.00000000
     atom   15 type  1   force =     0.00000000    0.00000000    0.00000000
     atom   16 type  1   force =     0.00000000    0.00000000    0.00000000
     atom   17 type  1   force =     0.00000000    0.00000000    0.00000000
     atom   18 type  1   force =     0.00000000    0.00000000    0.00000000
     atom   19 type  1   force =     0.00000000    0.00000000    0.00000000
     atom   20 type  1   force =     0.00000000    0.00000000    0.00000000
     atom   21 type  1   force =     0.00000000    0.00000000    0.00000000
     atom   22 type  1   force =     0.00000000    0.00000000    0.00000000
     atom   23 type  1   force =     0.00000000    0.00000000    0.00000000
     atom   24 type  1   force =     0.00000000    0.00000000    0.00000000
     The SCF correction term to forces
     atom    1 type  1   force =     0.00056102    0.00013000   -0.00000021
     atom    2 type  1   force =     0.00061281   -0.00013926    0.00000183
     atom    3 type  1   force =    -0.00007937   -0.00002069    0.00000093
     atom    4 type  1   force =    -0.00034135   -0.00012898   -0.00000348
     atom    5 type  1   force =    -0.00022870   -0.00001788    0.00000092
     atom    6 type  1   force =     0.00033995    0.00001500    0.00000174
     atom    7 type  1   force =     0.00072187   -0.00010479   -0.00000132
     atom    8 type  1   force =     0.00032327    0.00002649    0.00000028
     atom    9 type  1   force =    -0.00035263   -0.00000917    0.00000024
     atom   10 type  1   force =    -0.00027789    0.00006695    0.00000249
     atom   11 type  1   force =     0.00068006    0.00016298   -0.00000151
     atom   12 type  1   force =     0.00064806    0.00032533    0.00000040
     atom   13 type  1   force =    -0.00020119   -0.00020797   -0.00000142
     atom   14 type  1   force =    -0.00006447   -0.00022833    0.00000364
     atom   15 type  1   force =    -0.00023036   -0.00012457    0.00000083
     atom   16 type  1   force =    -0.00013365   -0.00033670    0.00000008
     atom   17 type  1   force =    -0.00005547    0.00006210   -0.00000005
     atom   18 type  1   force =    -0.00019205    0.00009380    0.00000144
     atom   19 type  1   force =     0.00000023   -0.00011411   -0.00000251
     atom   20 type  1   force =    -0.00010850   -0.00004860    0.00000044
     atom   21 type  1   force =    -0.00003457   -0.00028859    0.00000138
     atom   22 type  1   force =     0.00002823   -0.00004006   -0.00000060
     atom   23 type  1   force =    -0.00022710    0.00004544    0.00000045
     atom   24 type  1   force =    -0.00028115   -0.00009944    0.00000135

     Total force =     0.264156     Total SCF correction =     0.001882

     Writing all to output data dir ./calc.save/

     init_run     :      9.41s CPU      9.63s WALL (       1 calls)
     electrons    :     68.61s CPU     73.52s WALL (       1 calls)
     forces       :      2.86s CPU      2.92s WALL (       1 calls)

     Called by init_run:
     wfcinit      :      1.58s CPU      1.69s WALL (       1 calls)
     wfcinit:wfcr :      1.40s CPU      1.51s WALL (       5 calls)
     potinit      :      5.45s CPU      5.52s WALL (       1 calls)
     hinit0       :      2.09s CPU      2.11s WALL (       1 calls)

     Called by electrons:
     c_bands      :     57.94s CPU     61.85s WALL (      10 calls)
     sum_band     :      5.96s CPU      6.47s WALL (      10 calls)
     v_of_rho     :      9.13s CPU      9.56s WALL (      11 calls)
     v_h          :      0.05s CPU      0.05s WALL (      11 calls)
     v_xc         :      9.53s CPU     10.00s WALL (      12 calls)
     mix_rho      :      0.14s CPU      0.15s WALL (      10 calls)
     vdW_kernel   :      4.18s CPU      4.21s WALL (       1 calls)

     Called by c_bands:
     init_us_2    :      0.61s CPU      0.61s WALL (     110 calls)
     init_us_2:cp :      0.61s CPU      0.61s WALL (     110 calls)
     cegterg      :     56.37s CPU     60.24s WALL (      50 calls)

     Called by sum_band:
     sum_band:wei :      0.00s CPU      0.00s WALL (      10 calls)
     sum_band:loo :      5.89s CPU      6.39s WALL (      10 calls)
     sum_band:buf :      0.10s CPU      0.10s WALL (      50 calls)
     sum_band:ini :      0.27s CPU      0.27s WALL (      50 calls)

     Called by *egterg:
     cdiaghg      :      1.53s CPU      1.57s WALL (     343 calls)
     cegterg:over :      3.12s CPU      3.13s WALL (     293 calls)
     cegterg:upda :      2.98s CPU      2.99s WALL (     293 calls)
     cegterg:last :      3.38s CPU      3.40s WALL (     148 calls)
     cdiaghg:chol :      0.09s CPU      0.09s WALL (     343 calls)
     cdiaghg:inve :      0.01s CPU      0.01s WALL (     343 calls)
     cdiaghg:para :      0.16s CPU      0.17s WALL (     686 calls)
     h_psi        :     45.52s CPU     49.41s WALL (     348 calls)
     g_psi        :      0.27s CPU      0.27s WALL (     293 calls)

     Called by h_psi:
     h_psi:calbec :      3.14s CPU      3.19s WALL (     348 calls)
     vloc_psi     :     39.02s CPU     42.85s WALL (     348 calls)
     add_vuspsi   :      3.02s CPU      3.03s WALL (     348 calls)

     General routines
     calbec       :      3.43s CPU      3.48s WALL (     368 calls)
     fft          :      2.55s CPU      2.96s WALL (     720 calls)
     ffts         :      0.03s CPU      0.03s WALL (      10 calls)
     fftw         :     40.43s CPU     44.47s WALL (   25454 calls)

     Parallel routines

     PWSCF        :   1m21.12s CPU   1m28.02s WALL


   This run was terminated on:  10:57:56   5Dec2022            

=------------------------------------------------------------------------------=
   JOB DONE.
=------------------------------------------------------------------------------=
