
     Program PWSCF v.7.0 starts on  6Apr2023 at 16:47:10 

     This program is part of the open-source Quantum ESPRESSO suite
     for quantum simulation of materials; please cite
         "P. Giannozzi et al., J. Phys.:Condens. Matter 21 395502 (2009);
         "P. Giannozzi et al., J. Phys.:Condens. Matter 29 465901 (2017);
         "P. Giannozzi et al., J. Chem. Phys. 152 154105 (2020);
          URL http://www.quantum-espresso.org", 
     in publications or presentations arising from this work. More details at
     http://www.quantum-espresso.org/quote

     Parallel version (MPI), running on   600 processors

     MPI processes distributed on    50 nodes
     R & G space division:  proc/nbgrp/npool/nimage =     600
     176219 MiB available memory on the printing compute node when the environment starts

     Reading input from pw.inp
Warning: card &CELL ignored
Warning: card / ignored

     Current dimensions of program PWSCF are:
     Max number of different atomic species (ntypx) = 10
     Max number of k-points (npk) =  40000
     Max angular momentum in pseudopotentials (lmaxx) =  4
     Message from routine cell_base_init:
     DEPRECATED: use true lattice parameter, not A to a.u. conversion factor

     IMPORTANT: XC functional enforced from input :
     Exchange-correlation= VDW-DF
                           (   1   4   4   0   1   0   0)
     Any further DFT definition will be discarded
     Please, verify this is what you really want


     gamma-point specific algorithms are used

     Subspace diagonalization in iterative solution of the eigenvalue problem:
     one sub-group per band group will be used
     scalapack distributed-memory algorithm (size of sub-group: 24* 24 procs)


     Parallelization info
     --------------------
     sticks:   dense  smooth     PW     G-vecs:    dense   smooth      PW
     Min          50      50     11                 5806     5806     716
     Max          52      52     14                 5844     5844     750
     Sum       30679   30679   7661              3493573  3493573  436733

     Using Pencil Decomposition



     bravais-lattice index     =            0
     lattice parameter (alat)  =       1.0000  a.u.
     unit-cell volume          =   36138.3093 (a.u.)^3
     number of atoms/cell      =          254
     number of atomic types    =            1
     number of electrons       =      1016.00
     number of Kohn-Sham states=          614
     kinetic-energy cutoff     =      80.0000  Ry
     charge density cutoff     =     320.0000  Ry
     scf convergence threshold =      1.0E-01
     mixing beta               =       0.5000
     number of iterations used =            8  TF        mixing
     Exchange-correlation= VDW-DF
                           (   1   4   4   0   1   0   0)

     celldm(1)=   1.000000  celldm(2)=   0.000000  celldm(3)=   0.000000
     celldm(4)=   0.000000  celldm(5)=   0.000000  celldm(6)=   0.000000

     crystal axes: (cart. coord. in units of alat)
               a(1) = (  37.295632   0.000000   0.000000 )  
               a(2) = (   0.000000  32.298965   0.000000 )  
               a(3) = (   0.000000   0.000000  30.000000 )  

     reciprocal axes: (cart. coord. in units 2 pi/alat)
               b(1) = (  0.026813  0.000000  0.000000 )  
               b(2) = (  0.000000  0.030961  0.000000 )  
               b(3) = (  0.000000  0.000000  0.033333 )  


     PseudoPot. # 1 for C  read from file:
     .././06_C_4_1.2_1.2_pbe_n_v1.0.upf
     MD5 check sum: 7e0e17a2517474b8bea671dc4b65026c
     Pseudo is Norm-conserving + core correction, Zval =  4.0
     Generated using ONCVPSP code by D. R. Hamann
     Using radial grid of 1246 points,  4 beta functions with: 
                l(1) =   0
                l(2) =   0
                l(3) =   1
                l(4) =   1

     atomic species   valence    mass     pseudopotential
        C              4.00    12.00000     C ( 1.00)

     Starting magnetic structure 
     atomic species   magnetization
        C            1.000

     No symmetry found


                                    s                        frac. trans.

      isym =  1     identity                                     

 cryst.   s( 1) = (     1          0          0      )
                  (     0          1          0      )
                  (     0          0          1      )

 cart.    s( 1) = (  1.0000000  0.0000000  0.0000000 )
                  (  0.0000000  1.0000000  0.0000000 )
                  (  0.0000000  0.0000000  1.0000000 )


   Cartesian axes

     site n.     atom                  positions (alat units)
         1           C   tau(   1) = (   0.0000000   0.0000000  18.0000000  )
         2           C   tau(   2) = (   0.0000000   2.6915535  18.0000000  )
         3           C   tau(   3) = (   2.3309770   4.0373706  18.0000000  )
         4           C   tau(   4) = (   2.3309770   1.3457364  12.0000000  )
         5           C   tau(   5) = (   2.3309770   4.0373706  12.0000000  )
         6           C   tau(   6) = (   4.6619540   5.3831070  12.0000000  )
         7           C   tau(   7) = (   4.6619540   8.0747412  12.0000000  )
         8           C   tau(   8) = (   0.0000000   8.0747412  18.0000000  )
         9           C   tau(   9) = (   0.0000000  10.7662947  18.0000000  )
        10           C   tau(  10) = (   2.3309770  12.1121118  18.0000000  )
        11           C   tau(  11) = (   2.3309770  15.0727964  18.0000000  )
        12           C   tau(  12) = (   2.3309770   9.4204776  12.0000000  )
        13           C   tau(  13) = (   2.3309770  12.1121118  12.0000000  )
        14           C   tau(  14) = (   4.6619540  13.4578482  12.0000000  )
        15           C   tau(  15) = (   4.6619540  16.1494824  12.0000000  )
        16           C   tau(  16) = (   0.0000000  16.1494824  18.0000000  )
        17           C   tau(  17) = (   0.0000000  18.8410359  18.0000000  )
        18           C   tau(  18) = (   2.3309770  20.1868530  18.0000000  )
        19           C   tau(  19) = (   2.3309770  23.1475376  18.0000000  )
        20           C   tau(  20) = (   2.3309770  17.4952188  12.0000000  )
        21           C   tau(  21) = (   2.3309770  20.1868530  12.0000000  )
        22           C   tau(  22) = (   4.6619540  21.5325894  12.0000000  )
        23           C   tau(  23) = (   4.6619540  24.2242236  12.0000000  )
        24           C   tau(  24) = (   0.0000000  24.2242236  18.0000000  )
        25           C   tau(  25) = (   0.0000000  26.9157771  18.0000000  )
        26           C   tau(  26) = (   2.3309770  28.2615942  18.0000000  )
        27           C   tau(  27) = (   2.3309770  31.2222788  18.0000000  )
        28           C   tau(  28) = (   2.3309770  25.5699600  12.0000000  )
        29           C   tau(  29) = (   2.3309770  28.2615942  12.0000000  )
        30           C   tau(  30) = (   4.6619540  29.6073306  12.0000000  )
        31           C   tau(  31) = (   4.6619540  32.2989648  12.0000000  )
        32           C   tau(  32) = (   4.6619540   0.0000000  18.0000000  )
        33           C   tau(  33) = (   4.6619540   2.6915535  18.0000000  )
        34           C   tau(  34) = (   6.9929310   4.0373706  18.0000000  )
        35           C   tau(  35) = (   6.9929310   6.9980552  18.0000000  )
        36           C   tau(  36) = (   6.9929310   1.3457364  12.0000000  )
        37           C   tau(  37) = (   6.9929310   4.0373706  12.0000000  )
        38           C   tau(  38) = (   9.3239080   5.3831070  12.0000000  )
        39           C   tau(  39) = (   9.3239080   8.0747412  12.0000000  )
        40           C   tau(  40) = (   4.6619540   8.0747412  18.0000000  )
        41           C   tau(  41) = (   4.6619540  10.7662947  18.0000000  )
        42           C   tau(  42) = (   6.9929310  12.1121118  18.0000000  )
        43           C   tau(  43) = (   6.9929310  15.0727964  18.0000000  )
        44           C   tau(  44) = (   6.9929310   9.4204776  12.0000000  )
        45           C   tau(  45) = (   6.9929310  12.1121118  12.0000000  )
        46           C   tau(  46) = (   9.3239080  13.4578482  12.0000000  )
        47           C   tau(  47) = (   9.3239080  16.1494824  12.0000000  )
        48           C   tau(  48) = (   4.6619540  16.1494824  18.0000000  )
        49           C   tau(  49) = (   4.6619540  18.8410359  18.0000000  )
        50           C   tau(  50) = (   6.9929310  20.1868530  18.0000000  )
        51           C   tau(  51) = (   6.9929310  23.1475376  18.0000000  )
        52           C   tau(  52) = (   6.9929310  17.4952188  12.0000000  )
        53           C   tau(  53) = (   6.9929310  20.1868530  12.0000000  )
        54           C   tau(  54) = (   9.3239080  21.5325894  12.0000000  )
        55           C   tau(  55) = (   9.3239080  24.2242236  12.0000000  )
        56           C   tau(  56) = (   4.6619540  24.2242236  18.0000000  )
        57           C   tau(  57) = (   4.6619540  26.9157771  18.0000000  )
        58           C   tau(  58) = (   6.9929310  28.2615942  18.0000000  )
        59           C   tau(  59) = (   6.9929310  31.2222788  18.0000000  )
        60           C   tau(  60) = (   6.9929310  25.5699600  12.0000000  )
        61           C   tau(  61) = (   6.9929310  28.2615942  12.0000000  )
        62           C   tau(  62) = (   9.3239080  29.6073306  12.0000000  )
        63           C   tau(  63) = (   9.3239080  32.2989648  12.0000000  )
        64           C   tau(  64) = (   9.3239080   0.0000000  18.0000000  )
        65           C   tau(  65) = (   9.3239080   2.6915535  18.0000000  )
        66           C   tau(  66) = (  11.6548850   4.0373706  18.0000000  )
        67           C   tau(  67) = (  11.6548850   6.9980552  18.0000000  )
        68           C   tau(  68) = (  11.6548850   1.3457364  12.0000000  )
        69           C   tau(  69) = (  11.6548850   4.0373706  12.0000000  )
        70           C   tau(  70) = (  13.9858620   5.3831070  12.0000000  )
        71           C   tau(  71) = (  13.9858620   8.0747412  12.0000000  )
        72           C   tau(  72) = (   9.3239080   8.0747412  18.0000000  )
        73           C   tau(  73) = (   9.3239080  10.7662947  18.0000000  )
        74           C   tau(  74) = (  11.6548850  12.1121118  18.0000000  )
        75           C   tau(  75) = (  11.6548850  15.0727964  18.0000000  )
        76           C   tau(  76) = (  11.6548850   9.4204776  12.0000000  )
        77           C   tau(  77) = (  11.6548850  12.1121118  12.0000000  )
        78           C   tau(  78) = (  13.9858620  13.4578482  12.0000000  )
        79           C   tau(  79) = (  13.9858620  16.1494824  12.0000000  )
        80           C   tau(  80) = (   9.3239080  16.1494824  18.0000000  )
        81           C   tau(  81) = (   9.3239080  18.8410359  18.0000000  )
        82           C   tau(  82) = (  11.6548850  20.1868530  18.0000000  )
        83           C   tau(  83) = (  11.6548850  23.1475376  18.0000000  )
        84           C   tau(  84) = (  11.6548850  17.4952188  12.0000000  )
        85           C   tau(  85) = (  11.6548850  20.1868530  12.0000000  )
        86           C   tau(  86) = (  13.9858620  21.5325894  12.0000000  )
        87           C   tau(  87) = (  13.9858620  24.2242236  12.0000000  )
        88           C   tau(  88) = (   9.3239080  24.2242236  18.0000000  )
        89           C   tau(  89) = (   9.3239080  26.9157771  18.0000000  )
        90           C   tau(  90) = (  11.6548850  28.2615942  18.0000000  )
        91           C   tau(  91) = (  11.6548850  31.2222788  18.0000000  )
        92           C   tau(  92) = (  11.6548850  25.5699600  12.0000000  )
        93           C   tau(  93) = (  11.6548850  28.2615942  12.0000000  )
        94           C   tau(  94) = (  13.9858620  29.6073306  12.0000000  )
        95           C   tau(  95) = (  13.9858620  32.2989648  12.0000000  )
        96           C   tau(  96) = (  13.9858620   0.0000000  18.0000000  )
        97           C   tau(  97) = (  13.9858620   2.6915535  18.0000000  )
        98           C   tau(  98) = (  16.3168390   4.0373706  18.0000000  )
        99           C   tau(  99) = (  16.3168390   6.9980552  18.0000000  )
       100           C   tau( 100) = (  16.3168390   1.3457364  12.0000000  )
       101           C   tau( 101) = (  16.3168390   4.0373706  12.0000000  )
       102           C   tau( 102) = (  18.6478161   5.3831070  12.0000000  )
       103           C   tau( 103) = (  18.6478161   8.0747412  12.0000000  )
       104           C   tau( 104) = (  13.9858620   8.0747412  18.0000000  )
       105           C   tau( 105) = (  13.9858620  10.7662947  18.0000000  )
       106           C   tau( 106) = (  16.3168390  12.1121118  18.0000000  )
       107           C   tau( 107) = (  16.3168390  15.0727964  18.0000000  )
       108           C   tau( 108) = (  16.3168390   9.4204776  12.0000000  )
       109           C   tau( 109) = (  16.3168390  12.1121118  12.0000000  )
       110           C   tau( 110) = (  18.6478161  13.4578482  12.0000000  )
       111           C   tau( 111) = (  18.6478161  16.1494824  12.0000000  )
       112           C   tau( 112) = (  13.9858620  16.1494824  18.0000000  )
       113           C   tau( 113) = (  13.9858620  18.8410359  18.0000000  )
       114           C   tau( 114) = (  16.3168390  20.1868530  18.0000000  )
       115           C   tau( 115) = (  16.3168390  23.1475376  18.0000000  )
       116           C   tau( 116) = (  16.3168390  17.4952188  12.0000000  )
       117           C   tau( 117) = (  16.3168390  20.1868530  12.0000000  )
       118           C   tau( 118) = (  18.6478161  21.5325894  12.0000000  )
       119           C   tau( 119) = (  18.6478161  24.2242236  12.0000000  )
       120           C   tau( 120) = (  13.9858620  24.2242236  18.0000000  )
       121           C   tau( 121) = (  13.9858620  26.9157771  18.0000000  )
       122           C   tau( 122) = (  16.3168390  28.2615942  18.0000000  )
       123           C   tau( 123) = (  16.3168390  31.2222788  18.0000000  )
       124           C   tau( 124) = (  16.3168390  25.5699600  12.0000000  )
       125           C   tau( 125) = (  16.3168390  28.2615942  12.0000000  )
       126           C   tau( 126) = (  18.6478161  29.6073306  12.0000000  )
       127           C   tau( 127) = (  18.6478161  32.2989648  12.0000000  )
       128           C   tau( 128) = (  18.6478161   0.0000000  18.0000000  )
       129           C   tau( 129) = (  18.6478161   2.6915535  18.0000000  )
       130           C   tau( 130) = (  20.9787931   4.0373706  18.0000000  )
       131           C   tau( 131) = (  20.9787931   6.9980552  18.0000000  )
       132           C   tau( 132) = (  20.9787931   1.3457364  12.0000000  )
       133           C   tau( 133) = (  20.9787931   4.0373706  12.0000000  )
       134           C   tau( 134) = (  23.3097701   5.3831070  12.0000000  )
       135           C   tau( 135) = (  23.3097701   8.0747412  12.0000000  )
       136           C   tau( 136) = (  18.6478161   8.0747412  18.0000000  )
       137           C   tau( 137) = (  18.6478161  10.7662947  18.0000000  )
       138           C   tau( 138) = (  20.9787931  12.1121118  18.0000000  )
       139           C   tau( 139) = (  20.9787931  15.0727964  18.0000000  )
       140           C   tau( 140) = (  20.9787931   9.4204776  12.0000000  )
       141           C   tau( 141) = (  20.9787931  12.1121118  12.0000000  )
       142           C   tau( 142) = (  23.3097701  13.4578482  12.0000000  )
       143           C   tau( 143) = (  23.3097701  16.1494824  12.0000000  )
       144           C   tau( 144) = (  18.6478161  16.1494824  18.0000000  )
       145           C   tau( 145) = (  18.6478161  18.8410359  18.0000000  )
       146           C   tau( 146) = (  20.9787931  20.1868530  18.0000000  )
       147           C   tau( 147) = (  20.9787931  23.1475376  18.0000000  )
       148           C   tau( 148) = (  20.9787931  17.4952188  12.0000000  )
       149           C   tau( 149) = (  20.9787931  20.1868530  12.0000000  )
       150           C   tau( 150) = (  23.3097701  21.5325894  12.0000000  )
       151           C   tau( 151) = (  23.3097701  24.2242236  12.0000000  )
       152           C   tau( 152) = (  18.6478161  24.2242236  18.0000000  )
       153           C   tau( 153) = (  18.6478161  26.9157771  18.0000000  )
       154           C   tau( 154) = (  20.9787931  28.2615942  18.0000000  )
       155           C   tau( 155) = (  20.9787931  31.2222788  18.0000000  )
       156           C   tau( 156) = (  20.9787931  25.5699600  12.0000000  )
       157           C   tau( 157) = (  20.9787931  28.2615942  12.0000000  )
       158           C   tau( 158) = (  23.3097701  29.6073306  12.0000000  )
       159           C   tau( 159) = (  23.3097701  32.2989648  12.0000000  )
       160           C   tau( 160) = (  23.3097701   0.0000000  18.0000000  )
       161           C   tau( 161) = (  23.3097701   2.6915535  18.0000000  )
       162           C   tau( 162) = (  25.6407471   4.0373706  18.0000000  )
       163           C   tau( 163) = (  25.6407471   6.9980552  18.0000000  )
       164           C   tau( 164) = (  25.6407471   1.3457364  12.0000000  )
       165           C   tau( 165) = (  25.6407471   4.0373706  12.0000000  )
       166           C   tau( 166) = (  27.9717241   5.3831070  12.0000000  )
       167           C   tau( 167) = (  27.9717241   8.0747412  12.0000000  )
       168           C   tau( 168) = (  23.3097701   8.0747412  18.0000000  )
       169           C   tau( 169) = (  23.3097701  10.7662947  18.0000000  )
       170           C   tau( 170) = (  25.6407471  12.1121118  18.0000000  )
       171           C   tau( 171) = (  25.6407471  15.0727964  18.0000000  )
       172           C   tau( 172) = (  25.6407471   9.4204776  12.0000000  )
       173           C   tau( 173) = (  25.6407471  12.1121118  12.0000000  )
       174           C   tau( 174) = (  27.9717241  13.4578482  12.0000000  )
       175           C   tau( 175) = (  27.9717241  16.1494824  12.0000000  )
       176           C   tau( 176) = (  23.3097701  16.1494824  18.0000000  )
       177           C   tau( 177) = (  23.3097701  18.8410359  18.0000000  )
       178           C   tau( 178) = (  25.6407471  20.1868530  18.0000000  )
       179           C   tau( 179) = (  25.6407471  23.1475376  18.0000000  )
       180           C   tau( 180) = (  25.6407471  17.4952188  12.0000000  )
       181           C   tau( 181) = (  25.6407471  20.1868530  12.0000000  )
       182           C   tau( 182) = (  27.9717241  21.5325894  12.0000000  )
       183           C   tau( 183) = (  27.9717241  24.2242236  12.0000000  )
       184           C   tau( 184) = (  23.3097701  24.2242236  18.0000000  )
       185           C   tau( 185) = (  23.3097701  26.9157771  18.0000000  )
       186           C   tau( 186) = (  25.6407471  28.2615942  18.0000000  )
       187           C   tau( 187) = (  25.6407471  31.2222788  18.0000000  )
       188           C   tau( 188) = (  25.6407471  25.5699600  12.0000000  )
       189           C   tau( 189) = (  25.6407471  28.2615942  12.0000000  )
       190           C   tau( 190) = (  27.9717241  29.6073306  12.0000000  )
       191           C   tau( 191) = (  27.9717241  32.2989648  12.0000000  )
       192           C   tau( 192) = (  27.9717241   0.0000000  18.0000000  )
       193           C   tau( 193) = (  27.9717241   2.6915535  18.0000000  )
       194           C   tau( 194) = (  30.3027011   4.0373706  18.0000000  )
       195           C   tau( 195) = (  30.3027011   6.9980552  18.0000000  )
       196           C   tau( 196) = (  30.3027011   1.3457364  12.0000000  )
       197           C   tau( 197) = (  30.3027011   4.0373706  12.0000000  )
       198           C   tau( 198) = (  32.6336781   5.3831070  12.0000000  )
       199           C   tau( 199) = (  32.6336781   8.0747412  12.0000000  )
       200           C   tau( 200) = (  27.9717241   8.0747412  18.0000000  )
       201           C   tau( 201) = (  27.9717241  10.7662947  18.0000000  )
       202           C   tau( 202) = (  30.3027011  12.1121118  18.0000000  )
       203           C   tau( 203) = (  30.3027011  15.0727964  18.0000000  )
       204           C   tau( 204) = (  30.3027011   9.4204776  12.0000000  )
       205           C   tau( 205) = (  30.3027011  12.1121118  12.0000000  )
       206           C   tau( 206) = (  32.6336781  13.4578482  12.0000000  )
       207           C   tau( 207) = (  32.6336781  16.1494824  12.0000000  )
       208           C   tau( 208) = (  27.9717241  16.1494824  18.0000000  )
       209           C   tau( 209) = (  27.9717241  18.8410359  18.0000000  )
       210           C   tau( 210) = (  30.3027011  20.1868530  18.0000000  )
       211           C   tau( 211) = (  30.3027011  23.1475376  18.0000000  )
       212           C   tau( 212) = (  30.3027011  17.4952188  12.0000000  )
       213           C   tau( 213) = (  30.3027011  20.1868530  12.0000000  )
       214           C   tau( 214) = (  32.6336781  21.5325894  12.0000000  )
       215           C   tau( 215) = (  32.6336781  24.2242236  12.0000000  )
       216           C   tau( 216) = (  27.9717241  24.2242236  18.0000000  )
       217           C   tau( 217) = (  27.9717241  26.9157771  18.0000000  )
       218           C   tau( 218) = (  30.3027011  28.2615942  18.0000000  )
       219           C   tau( 219) = (  30.3027011  31.2222788  18.0000000  )
       220           C   tau( 220) = (  30.3027011  25.5699600  12.0000000  )
       221           C   tau( 221) = (  30.3027011  28.2615942  12.0000000  )
       222           C   tau( 222) = (  32.6336781  29.6073306  12.0000000  )
       223           C   tau( 223) = (  32.6336781  32.2989648  12.0000000  )
       224           C   tau( 224) = (  32.6336781   0.0000000  18.0000000  )
       225           C   tau( 225) = (  32.6336781   2.6915535  18.0000000  )
       226           C   tau( 226) = (  34.9646551   4.0373706  18.0000000  )
       227           C   tau( 227) = (  34.9646551   6.9980552  18.0000000  )
       228           C   tau( 228) = (  34.9646551   1.3457364  12.0000000  )
       229           C   tau( 229) = (  34.9646551   4.0373706  12.0000000  )
       230           C   tau( 230) = (  37.2956321   5.3831070  12.0000000  )
       231           C   tau( 231) = (  37.2956321   8.0747412  12.0000000  )
       232           C   tau( 232) = (  32.6336781   8.0747412  18.0000000  )
       233           C   tau( 233) = (  32.6336781  10.7662947  18.0000000  )
       234           C   tau( 234) = (  34.9646551  12.1121118  18.0000000  )
       235           C   tau( 235) = (  34.9646551  15.0727964  18.0000000  )
       236           C   tau( 236) = (  34.9646551   9.4204776  12.0000000  )
       237           C   tau( 237) = (  34.9646551  12.1121118  12.0000000  )
       238           C   tau( 238) = (  37.2956321  13.4578482  12.0000000  )
       239           C   tau( 239) = (  37.2956321  16.1494824  12.0000000  )
       240           C   tau( 240) = (  32.6336781  16.1494824  18.0000000  )
       241           C   tau( 241) = (  32.6336781  18.8410359  18.0000000  )
       242           C   tau( 242) = (  34.9646551  20.1868530  18.0000000  )
       243           C   tau( 243) = (  34.9646551  23.1475376  18.0000000  )
       244           C   tau( 244) = (  34.9646551  17.4952188  12.0000000  )
       245           C   tau( 245) = (  34.9646551  20.1868530  12.0000000  )
       246           C   tau( 246) = (  37.2956321  21.5325894  12.0000000  )
       247           C   tau( 247) = (  37.2956321  24.2242236  12.0000000  )
       248           C   tau( 248) = (  32.6336781  24.2242236  18.0000000  )
       249           C   tau( 249) = (  32.6336781  26.9157771  18.0000000  )
       250           C   tau( 250) = (  34.9646551  28.2615942  18.0000000  )
       251           C   tau( 251) = (  34.9646551  31.2222788  18.0000000  )
       252           C   tau( 252) = (  34.9646551  28.2615942  12.0000000  )
       253           C   tau( 253) = (  37.2956321  29.6073306  12.0000000  )
       254           C   tau( 254) = (  37.2956321  32.2989648  12.0000000  )

   Crystallographic axes

     site n.     atom                  positions (cryst. coord.)
         1           C   tau(   1) = (  0.0000000  0.0000000  0.6000000  )
         2           C   tau(   2) = (  0.0000000  0.0833325  0.6000000  )
         3           C   tau(   3) = (  0.0625000  0.1250000  0.6000000  )
         4           C   tau(   4) = (  0.0625000  0.0416650  0.4000000  )
         5           C   tau(   5) = (  0.0625000  0.1250000  0.4000000  )
         6           C   tau(   6) = (  0.1250000  0.1666650  0.4000000  )
         7           C   tau(   7) = (  0.1250000  0.2500000  0.4000000  )
         8           C   tau(   8) = (  0.0000000  0.2500000  0.6000000  )
         9           C   tau(   9) = (  0.0000000  0.3333325  0.6000000  )
        10           C   tau(  10) = (  0.0625000  0.3750000  0.6000000  )
        11           C   tau(  11) = (  0.0625000  0.4666650  0.6000000  )
        12           C   tau(  12) = (  0.0625000  0.2916650  0.4000000  )
        13           C   tau(  13) = (  0.0625000  0.3750000  0.4000000  )
        14           C   tau(  14) = (  0.1250000  0.4166650  0.4000000  )
        15           C   tau(  15) = (  0.1250000  0.5000000  0.4000000  )
        16           C   tau(  16) = (  0.0000000  0.5000000  0.6000000  )
        17           C   tau(  17) = (  0.0000000  0.5833325  0.6000000  )
        18           C   tau(  18) = (  0.0625000  0.6250000  0.6000000  )
        19           C   tau(  19) = (  0.0625000  0.7166650  0.6000000  )
        20           C   tau(  20) = (  0.0625000  0.5416650  0.4000000  )
        21           C   tau(  21) = (  0.0625000  0.6250000  0.4000000  )
        22           C   tau(  22) = (  0.1250000  0.6666650  0.4000000  )
        23           C   tau(  23) = (  0.1250000  0.7500000  0.4000000  )
        24           C   tau(  24) = (  0.0000000  0.7500000  0.6000000  )
        25           C   tau(  25) = (  0.0000000  0.8333325  0.6000000  )
        26           C   tau(  26) = (  0.0625000  0.8750000  0.6000000  )
        27           C   tau(  27) = (  0.0625000  0.9666650  0.6000000  )
        28           C   tau(  28) = (  0.0625000  0.7916650  0.4000000  )
        29           C   tau(  29) = (  0.0625000  0.8750000  0.4000000  )
        30           C   tau(  30) = (  0.1250000  0.9166650  0.4000000  )
        31           C   tau(  31) = (  0.1250000  1.0000000  0.4000000  )
        32           C   tau(  32) = (  0.1250000  0.0000000  0.6000000  )
        33           C   tau(  33) = (  0.1250000  0.0833325  0.6000000  )
        34           C   tau(  34) = (  0.1875000  0.1250000  0.6000000  )
        35           C   tau(  35) = (  0.1875000  0.2166650  0.6000000  )
        36           C   tau(  36) = (  0.1875000  0.0416650  0.4000000  )
        37           C   tau(  37) = (  0.1875000  0.1250000  0.4000000  )
        38           C   tau(  38) = (  0.2500000  0.1666650  0.4000000  )
        39           C   tau(  39) = (  0.2500000  0.2500000  0.4000000  )
        40           C   tau(  40) = (  0.1250000  0.2500000  0.6000000  )
        41           C   tau(  41) = (  0.1250000  0.3333325  0.6000000  )
        42           C   tau(  42) = (  0.1875000  0.3750000  0.6000000  )
        43           C   tau(  43) = (  0.1875000  0.4666650  0.6000000  )
        44           C   tau(  44) = (  0.1875000  0.2916650  0.4000000  )
        45           C   tau(  45) = (  0.1875000  0.3750000  0.4000000  )
        46           C   tau(  46) = (  0.2500000  0.4166650  0.4000000  )
        47           C   tau(  47) = (  0.2500000  0.5000000  0.4000000  )
        48           C   tau(  48) = (  0.1250000  0.5000000  0.6000000  )
        49           C   tau(  49) = (  0.1250000  0.5833325  0.6000000  )
        50           C   tau(  50) = (  0.1875000  0.6250000  0.6000000  )
        51           C   tau(  51) = (  0.1875000  0.7166650  0.6000000  )
        52           C   tau(  52) = (  0.1875000  0.5416650  0.4000000  )
        53           C   tau(  53) = (  0.1875000  0.6250000  0.4000000  )
        54           C   tau(  54) = (  0.2500000  0.6666650  0.4000000  )
        55           C   tau(  55) = (  0.2500000  0.7500000  0.4000000  )
        56           C   tau(  56) = (  0.1250000  0.7500000  0.6000000  )
        57           C   tau(  57) = (  0.1250000  0.8333325  0.6000000  )
        58           C   tau(  58) = (  0.1875000  0.8750000  0.6000000  )
        59           C   tau(  59) = (  0.1875000  0.9666650  0.6000000  )
        60           C   tau(  60) = (  0.1875000  0.7916650  0.4000000  )
        61           C   tau(  61) = (  0.1875000  0.8750000  0.4000000  )
        62           C   tau(  62) = (  0.2500000  0.9166650  0.4000000  )
        63           C   tau(  63) = (  0.2500000  1.0000000  0.4000000  )
        64           C   tau(  64) = (  0.2500000  0.0000000  0.6000000  )
        65           C   tau(  65) = (  0.2500000  0.0833325  0.6000000  )
        66           C   tau(  66) = (  0.3125000  0.1250000  0.6000000  )
        67           C   tau(  67) = (  0.3125000  0.2166650  0.6000000  )
        68           C   tau(  68) = (  0.3125000  0.0416650  0.4000000  )
        69           C   tau(  69) = (  0.3125000  0.1250000  0.4000000  )
        70           C   tau(  70) = (  0.3750000  0.1666650  0.4000000  )
        71           C   tau(  71) = (  0.3750000  0.2500000  0.4000000  )
        72           C   tau(  72) = (  0.2500000  0.2500000  0.6000000  )
        73           C   tau(  73) = (  0.2500000  0.3333325  0.6000000  )
        74           C   tau(  74) = (  0.3125000  0.3750000  0.6000000  )
        75           C   tau(  75) = (  0.3125000  0.4666650  0.6000000  )
        76           C   tau(  76) = (  0.3125000  0.2916650  0.4000000  )
        77           C   tau(  77) = (  0.3125000  0.3750000  0.4000000  )
        78           C   tau(  78) = (  0.3750000  0.4166650  0.4000000  )
        79           C   tau(  79) = (  0.3750000  0.5000000  0.4000000  )
        80           C   tau(  80) = (  0.2500000  0.5000000  0.6000000  )
        81           C   tau(  81) = (  0.2500000  0.5833325  0.6000000  )
        82           C   tau(  82) = (  0.3125000  0.6250000  0.6000000  )
        83           C   tau(  83) = (  0.3125000  0.7166650  0.6000000  )
        84           C   tau(  84) = (  0.3125000  0.5416650  0.4000000  )
        85           C   tau(  85) = (  0.3125000  0.6250000  0.4000000  )
        86           C   tau(  86) = (  0.3750000  0.6666650  0.4000000  )
        87           C   tau(  87) = (  0.3750000  0.7500000  0.4000000  )
        88           C   tau(  88) = (  0.2500000  0.7500000  0.6000000  )
        89           C   tau(  89) = (  0.2500000  0.8333325  0.6000000  )
        90           C   tau(  90) = (  0.3125000  0.8750000  0.6000000  )
        91           C   tau(  91) = (  0.3125000  0.9666650  0.6000000  )
        92           C   tau(  92) = (  0.3125000  0.7916650  0.4000000  )
        93           C   tau(  93) = (  0.3125000  0.8750000  0.4000000  )
        94           C   tau(  94) = (  0.3750000  0.9166650  0.4000000  )
        95           C   tau(  95) = (  0.3750000  1.0000000  0.4000000  )
        96           C   tau(  96) = (  0.3750000  0.0000000  0.6000000  )
        97           C   tau(  97) = (  0.3750000  0.0833325  0.6000000  )
        98           C   tau(  98) = (  0.4375000  0.1250000  0.6000000  )
        99           C   tau(  99) = (  0.4375000  0.2166650  0.6000000  )
       100           C   tau( 100) = (  0.4375000  0.0416650  0.4000000  )
       101           C   tau( 101) = (  0.4375000  0.1250000  0.4000000  )
       102           C   tau( 102) = (  0.5000000  0.1666650  0.4000000  )
       103           C   tau( 103) = (  0.5000000  0.2500000  0.4000000  )
       104           C   tau( 104) = (  0.3750000  0.2500000  0.6000000  )
       105           C   tau( 105) = (  0.3750000  0.3333325  0.6000000  )
       106           C   tau( 106) = (  0.4375000  0.3750000  0.6000000  )
       107           C   tau( 107) = (  0.4375000  0.4666650  0.6000000  )
       108           C   tau( 108) = (  0.4375000  0.2916650  0.4000000  )
       109           C   tau( 109) = (  0.4375000  0.3750000  0.4000000  )
       110           C   tau( 110) = (  0.5000000  0.4166650  0.4000000  )
       111           C   tau( 111) = (  0.5000000  0.5000000  0.4000000  )
       112           C   tau( 112) = (  0.3750000  0.5000000  0.6000000  )
       113           C   tau( 113) = (  0.3750000  0.5833325  0.6000000  )
       114           C   tau( 114) = (  0.4375000  0.6250000  0.6000000  )
       115           C   tau( 115) = (  0.4375000  0.7166650  0.6000000  )
       116           C   tau( 116) = (  0.4375000  0.5416650  0.4000000  )
       117           C   tau( 117) = (  0.4375000  0.6250000  0.4000000  )
       118           C   tau( 118) = (  0.5000000  0.6666650  0.4000000  )
       119           C   tau( 119) = (  0.5000000  0.7500000  0.4000000  )
       120           C   tau( 120) = (  0.3750000  0.7500000  0.6000000  )
       121           C   tau( 121) = (  0.3750000  0.8333325  0.6000000  )
       122           C   tau( 122) = (  0.4375000  0.8750000  0.6000000  )
       123           C   tau( 123) = (  0.4375000  0.9666650  0.6000000  )
       124           C   tau( 124) = (  0.4375000  0.7916650  0.4000000  )
       125           C   tau( 125) = (  0.4375000  0.8750000  0.4000000  )
       126           C   tau( 126) = (  0.5000000  0.9166650  0.4000000  )
       127           C   tau( 127) = (  0.5000000  1.0000000  0.4000000  )
       128           C   tau( 128) = (  0.5000000  0.0000000  0.6000000  )
       129           C   tau( 129) = (  0.5000000  0.0833325  0.6000000  )
       130           C   tau( 130) = (  0.5625000  0.1250000  0.6000000  )
       131           C   tau( 131) = (  0.5625000  0.2166650  0.6000000  )
       132           C   tau( 132) = (  0.5625000  0.0416650  0.4000000  )
       133           C   tau( 133) = (  0.5625000  0.1250000  0.4000000  )
       134           C   tau( 134) = (  0.6250000  0.1666650  0.4000000  )
       135           C   tau( 135) = (  0.6250000  0.2500000  0.4000000  )
       136           C   tau( 136) = (  0.5000000  0.2500000  0.6000000  )
       137           C   tau( 137) = (  0.5000000  0.3333325  0.6000000  )
       138           C   tau( 138) = (  0.5625000  0.3750000  0.6000000  )
       139           C   tau( 139) = (  0.5625000  0.4666650  0.6000000  )
       140           C   tau( 140) = (  0.5625000  0.2916650  0.4000000  )
       141           C   tau( 141) = (  0.5625000  0.3750000  0.4000000  )
       142           C   tau( 142) = (  0.6250000  0.4166650  0.4000000  )
       143           C   tau( 143) = (  0.6250000  0.5000000  0.4000000  )
       144           C   tau( 144) = (  0.5000000  0.5000000  0.6000000  )
       145           C   tau( 145) = (  0.5000000  0.5833325  0.6000000  )
       146           C   tau( 146) = (  0.5625000  0.6250000  0.6000000  )
       147           C   tau( 147) = (  0.5625000  0.7166650  0.6000000  )
       148           C   tau( 148) = (  0.5625000  0.5416650  0.4000000  )
       149           C   tau( 149) = (  0.5625000  0.6250000  0.4000000  )
       150           C   tau( 150) = (  0.6250000  0.6666650  0.4000000  )
       151           C   tau( 151) = (  0.6250000  0.7500000  0.4000000  )
       152           C   tau( 152) = (  0.5000000  0.7500000  0.6000000  )
       153           C   tau( 153) = (  0.5000000  0.8333325  0.6000000  )
       154           C   tau( 154) = (  0.5625000  0.8750000  0.6000000  )
       155           C   tau( 155) = (  0.5625000  0.9666650  0.6000000  )
       156           C   tau( 156) = (  0.5625000  0.7916650  0.4000000  )
       157           C   tau( 157) = (  0.5625000  0.8750000  0.4000000  )
       158           C   tau( 158) = (  0.6250000  0.9166650  0.4000000  )
       159           C   tau( 159) = (  0.6250000  1.0000000  0.4000000  )
       160           C   tau( 160) = (  0.6250000  0.0000000  0.6000000  )
       161           C   tau( 161) = (  0.6250000  0.0833325  0.6000000  )
       162           C   tau( 162) = (  0.6875000  0.1250000  0.6000000  )
       163           C   tau( 163) = (  0.6875000  0.2166650  0.6000000  )
       164           C   tau( 164) = (  0.6875000  0.0416650  0.4000000  )
       165           C   tau( 165) = (  0.6875000  0.1250000  0.4000000  )
       166           C   tau( 166) = (  0.7500000  0.1666650  0.4000000  )
       167           C   tau( 167) = (  0.7500000  0.2500000  0.4000000  )
       168           C   tau( 168) = (  0.6250000  0.2500000  0.6000000  )
       169           C   tau( 169) = (  0.6250000  0.3333325  0.6000000  )
       170           C   tau( 170) = (  0.6875000  0.3750000  0.6000000  )
       171           C   tau( 171) = (  0.6875000  0.4666650  0.6000000  )
       172           C   tau( 172) = (  0.6875000  0.2916650  0.4000000  )
       173           C   tau( 173) = (  0.6875000  0.3750000  0.4000000  )
       174           C   tau( 174) = (  0.7500000  0.4166650  0.4000000  )
       175           C   tau( 175) = (  0.7500000  0.5000000  0.4000000  )
       176           C   tau( 176) = (  0.6250000  0.5000000  0.6000000  )
       177           C   tau( 177) = (  0.6250000  0.5833325  0.6000000  )
       178           C   tau( 178) = (  0.6875000  0.6250000  0.6000000  )
       179           C   tau( 179) = (  0.6875000  0.7166650  0.6000000  )
       180           C   tau( 180) = (  0.6875000  0.5416650  0.4000000  )
       181           C   tau( 181) = (  0.6875000  0.6250000  0.4000000  )
       182           C   tau( 182) = (  0.7500000  0.6666650  0.4000000  )
       183           C   tau( 183) = (  0.7500000  0.7500000  0.4000000  )
       184           C   tau( 184) = (  0.6250000  0.7500000  0.6000000  )
       185           C   tau( 185) = (  0.6250000  0.8333325  0.6000000  )
       186           C   tau( 186) = (  0.6875000  0.8750000  0.6000000  )
       187           C   tau( 187) = (  0.6875000  0.9666650  0.6000000  )
       188           C   tau( 188) = (  0.6875000  0.7916650  0.4000000  )
       189           C   tau( 189) = (  0.6875000  0.8750000  0.4000000  )
       190           C   tau( 190) = (  0.7500000  0.9166650  0.4000000  )
       191           C   tau( 191) = (  0.7500000  1.0000000  0.4000000  )
       192           C   tau( 192) = (  0.7500000  0.0000000  0.6000000  )
       193           C   tau( 193) = (  0.7500000  0.0833325  0.6000000  )
       194           C   tau( 194) = (  0.8125000  0.1250000  0.6000000  )
       195           C   tau( 195) = (  0.8125000  0.2166650  0.6000000  )
       196           C   tau( 196) = (  0.8125000  0.0416650  0.4000000  )
       197           C   tau( 197) = (  0.8125000  0.1250000  0.4000000  )
       198           C   tau( 198) = (  0.8750000  0.1666650  0.4000000  )
       199           C   tau( 199) = (  0.8750000  0.2500000  0.4000000  )
       200           C   tau( 200) = (  0.7500000  0.2500000  0.6000000  )
       201           C   tau( 201) = (  0.7500000  0.3333325  0.6000000  )
       202           C   tau( 202) = (  0.8125000  0.3750000  0.6000000  )
       203           C   tau( 203) = (  0.8125000  0.4666650  0.6000000  )
       204           C   tau( 204) = (  0.8125000  0.2916650  0.4000000  )
       205           C   tau( 205) = (  0.8125000  0.3750000  0.4000000  )
       206           C   tau( 206) = (  0.8750000  0.4166650  0.4000000  )
       207           C   tau( 207) = (  0.8750000  0.5000000  0.4000000  )
       208           C   tau( 208) = (  0.7500000  0.5000000  0.6000000  )
       209           C   tau( 209) = (  0.7500000  0.5833325  0.6000000  )
       210           C   tau( 210) = (  0.8125000  0.6250000  0.6000000  )
       211           C   tau( 211) = (  0.8125000  0.7166650  0.6000000  )
       212           C   tau( 212) = (  0.8125000  0.5416650  0.4000000  )
       213           C   tau( 213) = (  0.8125000  0.6250000  0.4000000  )
       214           C   tau( 214) = (  0.8750000  0.6666650  0.4000000  )
       215           C   tau( 215) = (  0.8750000  0.7500000  0.4000000  )
       216           C   tau( 216) = (  0.7500000  0.7500000  0.6000000  )
       217           C   tau( 217) = (  0.7500000  0.8333325  0.6000000  )
       218           C   tau( 218) = (  0.8125000  0.8750000  0.6000000  )
       219           C   tau( 219) = (  0.8125000  0.9666650  0.6000000  )
       220           C   tau( 220) = (  0.8125000  0.7916650  0.4000000  )
       221           C   tau( 221) = (  0.8125000  0.8750000  0.4000000  )
       222           C   tau( 222) = (  0.8750000  0.9166650  0.4000000  )
       223           C   tau( 223) = (  0.8750000  1.0000000  0.4000000  )
       224           C   tau( 224) = (  0.8750000  0.0000000  0.6000000  )
       225           C   tau( 225) = (  0.8750000  0.0833325  0.6000000  )
       226           C   tau( 226) = (  0.9375000  0.1250000  0.6000000  )
       227           C   tau( 227) = (  0.9375000  0.2166650  0.6000000  )
       228           C   tau( 228) = (  0.9375000  0.0416650  0.4000000  )
       229           C   tau( 229) = (  0.9375000  0.1250000  0.4000000  )
       230           C   tau( 230) = (  1.0000000  0.1666650  0.4000000  )
       231           C   tau( 231) = (  1.0000000  0.2500000  0.4000000  )
       232           C   tau( 232) = (  0.8750000  0.2500000  0.6000000  )
       233           C   tau( 233) = (  0.8750000  0.3333325  0.6000000  )
       234           C   tau( 234) = (  0.9375000  0.3750000  0.6000000  )
       235           C   tau( 235) = (  0.9375000  0.4666650  0.6000000  )
       236           C   tau( 236) = (  0.9375000  0.2916650  0.4000000  )
       237           C   tau( 237) = (  0.9375000  0.3750000  0.4000000  )
       238           C   tau( 238) = (  1.0000000  0.4166650  0.4000000  )
       239           C   tau( 239) = (  1.0000000  0.5000000  0.4000000  )
       240           C   tau( 240) = (  0.8750000  0.5000000  0.6000000  )
       241           C   tau( 241) = (  0.8750000  0.5833325  0.6000000  )
       242           C   tau( 242) = (  0.9375000  0.6250000  0.6000000  )
       243           C   tau( 243) = (  0.9375000  0.7166650  0.6000000  )
       244           C   tau( 244) = (  0.9375000  0.5416650  0.4000000  )
       245           C   tau( 245) = (  0.9375000  0.6250000  0.4000000  )
       246           C   tau( 246) = (  1.0000000  0.6666650  0.4000000  )
       247           C   tau( 247) = (  1.0000000  0.7500000  0.4000000  )
       248           C   tau( 248) = (  0.8750000  0.7500000  0.6000000  )
       249           C   tau( 249) = (  0.8750000  0.8333325  0.6000000  )
       250           C   tau( 250) = (  0.9375000  0.8750000  0.6000000  )
       251           C   tau( 251) = (  0.9375000  0.9666650  0.6000000  )
       252           C   tau( 252) = (  0.9375000  0.8750000  0.4000000  )
       253           C   tau( 253) = (  1.0000000  0.9166650  0.4000000  )
       254           C   tau( 254) = (  1.0000000  1.0000000  0.4000000  )

     number of k points=     1  Fermi-Dirac smearing, width (Ry)=  0.0020
                       cart. coord. in units 2pi/alat
        k(    1) = (   0.0000000   0.0000000   0.0000000), wk =   1.0000000

                       cryst. coord.
        k(    1) = (   0.0000000   0.0000000   0.0000000), wk =   1.0000000

     Dense  grid:  1746787 G-vectors     FFT dimensions: ( 216, 192, 180)

     Dynamical RAM for                 wfc:       3.40 MB

     Dynamical RAM for     wfc (w. buffer):      10.20 MB

     Dynamical RAM for           str. fact:       0.04 MB

     Dynamical RAM for           local pot:       0.00 MB

     Dynamical RAM for          nlocal pot:      11.26 MB

     Dynamical RAM for                qrad:       0.41 MB

     Dynamical RAM for          rho,v,vnew:       2.16 MB

     Dynamical RAM for               rhoin:       0.72 MB

     Dynamical RAM for            rho*nmix:       1.42 MB

     Dynamical RAM for           G-vectors:       0.19 MB

     Dynamical RAM for          h,s,v(r/c):       0.06 MB

     Dynamical RAM for          <psi|beta>:       9.52 MB

     Dynamical RAM for                 psi:       6.80 MB

     Dynamical RAM for                hpsi:       6.80 MB

     Dynamical RAM for      wfcinit/wfcrot:      15.44 MB

     Estimated static dynamical RAM per process >      26.97 MB

     Estimated max dynamical RAM per process >      51.58 MB

     Estimated total dynamical RAM >      30.22 GB
     Generating pointlists ...
     new r_m :   1.0591 (alat units)  1.0591 (a.u.) for type    1

     Initial potential from superposition of free atoms

     starting charge    1015.9887, renormalised to    1016.0000

     negative rho (up, down):  9.422E-04 1.285E-13


     %%%%%%%%%%%%%%%%%%%%%%%%%%%%%%%%%%%%%%%%%%%%%%%%%%%%%%%%%%%%%%%%%%%%%%%%
     %                                                                      %
     % You are using vdW-DF, which was implemented by the Thonhauser group. %
     % Please cite the following two papers that made this development      %
     % possible and the two reviews that describe the various versions:     %
     %                                                                      %
     %   T. Thonhauser et al., PRL 115, 136402 (2015).                      %
     %   T. Thonhauser et al., PRB 76, 125112 (2007).                       %
     %   K. Berland et al., Rep. Prog. Phys. 78, 066501 (2015).             %
     %   D.C. Langreth et al., J. Phys.: Condens. Matter 21, 084203 (2009). %
     %                                                                      %
     %                                                                      %
     % If you are calculating the stress with vdW-DF, please also cite:     %
     %                                                                      %
     %   R. Sabatini et al., J. Phys.: Condens. Matter 24, 424209 (2012).   %
     %                                                                      %
     %%%%%%%%%%%%%%%%%%%%%%%%%%%%%%%%%%%%%%%%%%%%%%%%%%%%%%%%%%%%%%%%%%%%%%%%


     Carrying out vdW-DF run using the following parameters:
     Nqs    =  20  Npoints =  1024  r_max =  100.000
     q_mesh =  0.00001000  0.04494208  0.09755937  0.15916263
               0.23128650  0.31572767  0.41458969  0.53033537
               0.66584808  0.82450364  1.01025438  1.22772762
               1.48234092  1.78043706  2.12944203  2.53805004
               3.01644009  3.57652955  4.23227104  5.00000000


     -----------------------------------------------
     Non-local corr. energy    =       6.87924146 Ry
     -----------------------------------------------

     Starting wfcs are random

     total cpu time spent up to now is        5.6 secs

     per-process dynamical memory:   212.4 Mb

     Self-consistent Calculation

     iteration #  1     ecut=    80.00 Ry     beta= 0.50
     Davidson diagonalization with overlap

---- Real-time Memory Report at c_bands before calling an iterative solver
           264 MiB given to the printing process from OS
           207 MiB allocation reported by mallinfo(arena+hblkhd)
        175265 MiB available memory on the node where the printing process lives
------------------
     ethr =  1.00E-02,  avg # of iterations = 18.0

     negative rho (up, down):  3.360E-05 6.995E-05


     -----------------------------------------------
     Non-local corr. energy    =      10.38343345 Ry
     -----------------------------------------------


     total cpu time spent up to now is       46.8 secs

     total energy              =   -3037.80269147 Ry
     estimated scf accuracy    <      60.96585304 Ry

     total magnetization       =   124.32 Bohr mag/cell
     absolute magnetization    =   125.78 Bohr mag/cell

     iteration #  2     ecut=    80.00 Ry     beta= 0.50
     Davidson diagonalization with overlap

---- Real-time Memory Report at c_bands before calling an iterative solver
           292 MiB given to the printing process from OS
           226 MiB allocation reported by mallinfo(arena+hblkhd)
        175073 MiB available memory on the node where the printing process lives
------------------
     ethr =  6.00E-03,  avg # of iterations =  1.0


     -----------------------------------------------
     Non-local corr. energy    =      12.80534101 Ry
     -----------------------------------------------


     total cpu time spent up to now is       53.5 secs

     total energy              =   -3073.98329762 Ry
     estimated scf accuracy    <      20.96177854 Ry

     total magnetization       =    58.09 Bohr mag/cell
     absolute magnetization    =    59.99 Bohr mag/cell

     iteration #  3     ecut=    80.00 Ry     beta= 0.50
     Davidson diagonalization with overlap

---- Real-time Memory Report at c_bands before calling an iterative solver
           296 MiB given to the printing process from OS
           229 MiB allocation reported by mallinfo(arena+hblkhd)
        175010 MiB available memory on the node where the printing process lives
------------------
     ethr =  2.06E-03,  avg # of iterations =  4.0


     -----------------------------------------------
     Non-local corr. energy    =      12.91914641 Ry
     -----------------------------------------------


     total cpu time spent up to now is       61.9 secs

     total energy              =   -3080.59300764 Ry
     estimated scf accuracy    <       1.47509686 Ry

     total magnetization       =     5.56 Bohr mag/cell
     absolute magnetization    =    10.74 Bohr mag/cell

     iteration #  4     ecut=    80.00 Ry     beta= 0.50
     Davidson diagonalization with overlap

---- Real-time Memory Report at c_bands before calling an iterative solver
           297 MiB given to the printing process from OS
           229 MiB allocation reported by mallinfo(arena+hblkhd)
        174997 MiB available memory on the node where the printing process lives
------------------
     ethr =  1.45E-04,  avg # of iterations = 16.5


     -----------------------------------------------
     Non-local corr. energy    =      12.97061247 Ry
     -----------------------------------------------


     total cpu time spent up to now is       76.9 secs

     total energy              =   -3080.86001758 Ry
     estimated scf accuracy    <       1.02983471 Ry

     total magnetization       =     5.01 Bohr mag/cell
     absolute magnetization    =     8.99 Bohr mag/cell

     iteration #  5     ecut=    80.00 Ry     beta= 0.50
     Davidson diagonalization with overlap

---- Real-time Memory Report at c_bands before calling an iterative solver
           297 MiB given to the printing process from OS
           229 MiB allocation reported by mallinfo(arena+hblkhd)
        175001 MiB available memory on the node where the printing process lives
------------------
     ethr =  1.01E-04,  avg # of iterations =  2.0


     -----------------------------------------------
     Non-local corr. energy    =      13.09657549 Ry
     -----------------------------------------------


     total cpu time spent up to now is       84.2 secs

     total energy              =   -3080.81950499 Ry
     estimated scf accuracy    <       0.63820063 Ry

     total magnetization       =     3.78 Bohr mag/cell
     absolute magnetization    =     6.62 Bohr mag/cell

     iteration #  6     ecut=    80.00 Ry     beta= 0.50
     Davidson diagonalization with overlap

---- Real-time Memory Report at c_bands before calling an iterative solver
           304 MiB given to the printing process from OS
           236 MiB allocation reported by mallinfo(arena+hblkhd)
        175003 MiB available memory on the node where the printing process lives
------------------
     ethr =  6.28E-05,  avg # of iterations =  8.0


     -----------------------------------------------
     Non-local corr. energy    =      13.13182369 Ry
     -----------------------------------------------


     total cpu time spent up to now is       93.4 secs

     total energy              =   -3080.81422355 Ry
     estimated scf accuracy    <       0.51304781 Ry

     total magnetization       =     2.05 Bohr mag/cell
     absolute magnetization    =     3.90 Bohr mag/cell

     iteration #  7     ecut=    80.00 Ry     beta= 0.50
     Davidson diagonalization with overlap

---- Real-time Memory Report at c_bands before calling an iterative solver
           304 MiB given to the printing process from OS
           236 MiB allocation reported by mallinfo(arena+hblkhd)
        175006 MiB available memory on the node where the printing process lives
------------------
     ethr =  5.05E-05,  avg # of iterations =  4.0


     -----------------------------------------------
     Non-local corr. energy    =      13.19891145 Ry
     -----------------------------------------------


     total cpu time spent up to now is      101.1 secs

     total energy              =   -3080.71017425 Ry
     estimated scf accuracy    <       0.34620921 Ry

     total magnetization       =     1.76 Bohr mag/cell
     absolute magnetization    =     4.16 Bohr mag/cell

     iteration #  8     ecut=    80.00 Ry     beta= 0.50
     Davidson diagonalization with overlap

---- Real-time Memory Report at c_bands before calling an iterative solver
           304 MiB given to the printing process from OS
           236 MiB allocation reported by mallinfo(arena+hblkhd)
        175008 MiB available memory on the node where the printing process lives
------------------
     c_bands:  1 eigenvalues not converged
     ethr =  3.41E-05,  avg # of iterations = 14.0


     -----------------------------------------------
     Non-local corr. energy    =      13.22619858 Ry
     -----------------------------------------------


     total cpu time spent up to now is      112.7 secs

     total energy              =   -3080.74353638 Ry
     estimated scf accuracy    <       0.35490387 Ry

     total magnetization       =     1.98 Bohr mag/cell
     absolute magnetization    =     4.82 Bohr mag/cell

     iteration #  9     ecut=    80.00 Ry     beta= 0.50
     Davidson diagonalization with overlap

---- Real-time Memory Report at c_bands before calling an iterative solver
           304 MiB given to the printing process from OS
           236 MiB allocation reported by mallinfo(arena+hblkhd)
        174991 MiB available memory on the node where the printing process lives
------------------
     ethr =  3.41E-05,  avg # of iterations =  9.5

     negative rho (up, down):  6.314E-04 6.181E-04


     -----------------------------------------------
     Non-local corr. energy    =      13.24530908 Ry
     -----------------------------------------------


     total cpu time spent up to now is      122.0 secs

     total energy              =   -3080.73148406 Ry
     estimated scf accuracy    <       0.21680427 Ry

     total magnetization       =     1.46 Bohr mag/cell
     absolute magnetization    =     3.89 Bohr mag/cell

     iteration # 10     ecut=    80.00 Ry     beta= 0.50
     Davidson diagonalization with overlap

---- Real-time Memory Report at c_bands before calling an iterative solver
           304 MiB given to the printing process from OS
           236 MiB allocation reported by mallinfo(arena+hblkhd)
        174981 MiB available memory on the node where the printing process lives
------------------
     c_bands:  2 eigenvalues not converged
     c_bands:  5 eigenvalues not converged
     ethr =  2.13E-05,  avg # of iterations = 40.0

     negative rho (up, down):  3.250E-03 2.857E-03


     -----------------------------------------------
     Non-local corr. energy    =      13.23397207 Ry
     -----------------------------------------------


     total cpu time spent up to now is      144.7 secs

     total energy              =   -3080.73281175 Ry
     estimated scf accuracy    <       0.14641728 Ry

     total magnetization       =     1.95 Bohr mag/cell
     absolute magnetization    =     4.07 Bohr mag/cell

     iteration # 11     ecut=    80.00 Ry     beta= 0.50
     Davidson diagonalization with overlap

---- Real-time Memory Report at c_bands before calling an iterative solver
           310 MiB given to the printing process from OS
           241 MiB allocation reported by mallinfo(arena+hblkhd)
        174934 MiB available memory on the node where the printing process lives
------------------
     ethr =  1.44E-05,  avg # of iterations = 13.5

     negative rho (up, down):  6.763E-02 6.677E-02


     -----------------------------------------------
     Non-local corr. energy    =      13.20442121 Ry
     -----------------------------------------------


     total cpu time spent up to now is      154.8 secs

     total energy              =   -3080.68767521 Ry
     estimated scf accuracy    <       0.14998687 Ry

     total magnetization       =     2.09 Bohr mag/cell
     absolute magnetization    =     4.06 Bohr mag/cell

     iteration # 12     ecut=    80.00 Ry     beta= 0.50
     Davidson diagonalization with overlap

---- Real-time Memory Report at c_bands before calling an iterative solver
           310 MiB given to the printing process from OS
           241 MiB allocation reported by mallinfo(arena+hblkhd)
        174930 MiB available memory on the node where the printing process lives
------------------
     c_bands:  1 eigenvalues not converged
     ethr =  1.44E-05,  avg # of iterations = 13.0

     negative rho (up, down):  1.770E-01 1.694E-01


     -----------------------------------------------
     Non-local corr. energy    =      13.19465851 Ry
     -----------------------------------------------


     total cpu time spent up to now is      164.9 secs

     total energy              =   -3080.70725187 Ry
     estimated scf accuracy    <       0.10072341 Ry

     total magnetization       =     1.92 Bohr mag/cell
     absolute magnetization    =     3.64 Bohr mag/cell

     iteration # 13     ecut=    80.00 Ry     beta= 0.50
     Davidson diagonalization with overlap

---- Real-time Memory Report at c_bands before calling an iterative solver
           315 MiB given to the printing process from OS
           246 MiB allocation reported by mallinfo(arena+hblkhd)
        174925 MiB available memory on the node where the printing process lives
------------------
     ethr =  9.91E-06,  avg # of iterations =  4.0


     -----------------------------------------------
     Non-local corr. energy    =      13.17560791 Ry
     -----------------------------------------------


     Magnetic moment per site  (integrated on atomic sphere of radius R)
     atom   1 (R=1.059)  charge=  1.5958  magn= -0.0064
     atom   2 (R=1.059)  charge=  1.5384  magn=  0.0052
     atom   3 (R=1.059)  charge=  1.4224  magn= -0.1314
     atom   4 (R=1.059)  charge=  1.5407  magn= -0.0013
     atom   5 (R=1.059)  charge=  1.5394  magn=  0.0015
     atom   6 (R=1.059)  charge=  1.5397  magn= -0.0005
     atom   7 (R=1.059)  charge=  1.5385  magn=  0.0013
     atom   8 (R=1.059)  charge=  1.4767  magn=  0.2461
     atom   9 (R=1.059)  charge=  1.5352  magn=  0.0000
     atom  10 (R=1.059)  charge=  1.4960  magn=  0.0139
     atom  11 (R=1.059)  charge=  1.5512  magn= -0.0033
     atom  12 (R=1.059)  charge=  1.5410  magn= -0.0007
     atom  13 (R=1.059)  charge=  1.5397  magn=  0.0014
     atom  14 (R=1.059)  charge=  1.5400  magn= -0.0007
     atom  15 (R=1.059)  charge=  1.5397  magn=  0.0017
     atom  16 (R=1.059)  charge=  1.5988  magn=  0.0022
     atom  17 (R=1.059)  charge=  1.5443  magn= -0.0014
     atom  18 (R=1.059)  charge=  1.4951  magn=  0.0012
     atom  19 (R=1.059)  charge=  1.5509  magn=  0.0003
     atom  20 (R=1.059)  charge=  1.5410  magn= -0.0006
     atom  21 (R=1.059)  charge=  1.5384  magn=  0.0102
     atom  22 (R=1.059)  charge=  1.5403  magn= -0.0037
     atom  23 (R=1.059)  charge=  1.5378  magn=  0.0097
     atom  24 (R=1.059)  charge=  1.5977  magn=  0.0010
     atom  25 (R=1.059)  charge=  1.5434  magn= -0.0004
     atom  26 (R=1.059)  charge=  1.4956  magn= -0.0010
     atom  27 (R=1.059)  charge=  1.5512  magn=  0.0061
     atom  28 (R=1.059)  charge=  1.5350  magn=  0.0005
     atom  29 (R=1.059)  charge=  1.5404  magn=  0.0099
     atom  30 (R=1.059)  charge=  1.5395  magn= -0.0019
     atom  31 (R=1.059)  charge=  1.5402  magn=  0.0022
     atom  32 (R=1.059)  charge=  1.5954  magn= -0.0068
     atom  33 (R=1.059)  charge=  1.5384  magn=  0.0072
     atom  34 (R=1.059)  charge=  1.4979  magn=  0.0055
     atom  35 (R=1.059)  charge=  1.5511  magn=  0.0015
     atom  36 (R=1.059)  charge=  1.5416  magn= -0.0008
     atom  37 (R=1.059)  charge=  1.5399  magn=  0.0010
     atom  38 (R=1.059)  charge=  1.5400  magn= -0.0005
     atom  39 (R=1.059)  charge=  1.5392  magn=  0.0016
     atom  40 (R=1.059)  charge=  1.4774  magn=  0.2468
     atom  41 (R=1.059)  charge=  1.5346  magn=  0.0004
     atom  42 (R=1.059)  charge=  1.4943  magn=  0.0137
     atom  43 (R=1.059)  charge=  1.5522  magn= -0.0000
     atom  44 (R=1.059)  charge=  1.5414  magn= -0.0003
     atom  45 (R=1.059)  charge=  1.5400  magn=  0.0011
     atom  46 (R=1.059)  charge=  1.5400  magn= -0.0009
     atom  47 (R=1.059)  charge=  1.5394  magn=  0.0015
     atom  48 (R=1.059)  charge=  1.5989  magn=  0.0020
     atom  49 (R=1.059)  charge=  1.5439  magn= -0.0009
     atom  50 (R=1.059)  charge=  1.4952  magn=  0.0011
     atom  51 (R=1.059)  charge=  1.5527  magn= -0.0011
     atom  52 (R=1.059)  charge=  1.5416  magn= -0.0013
     atom  53 (R=1.059)  charge=  1.5403  magn=  0.0020
     atom  54 (R=1.059)  charge=  1.5402  magn= -0.0017
     atom  55 (R=1.059)  charge=  1.5391  magn=  0.0022
     atom  56 (R=1.059)  charge=  1.5986  magn=  0.0006
     atom  57 (R=1.059)  charge=  1.5439  magn=  0.0005
     atom  58 (R=1.059)  charge=  1.4946  magn= -0.0004
     atom  59 (R=1.059)  charge=  1.5528  magn= -0.0009
     atom  60 (R=1.059)  charge=  1.5417  magn=  0.0002
     atom  61 (R=1.059)  charge=  1.5408  magn=  0.0024
     atom  62 (R=1.059)  charge=  1.5395  magn= -0.0013
     atom  63 (R=1.059)  charge=  1.5391  magn=  0.0025
     atom  64 (R=1.059)  charge=  1.5988  magn= -0.0010
     atom  65 (R=1.059)  charge=  1.5424  magn=  0.0019
     atom  66 (R=1.059)  charge=  1.4962  magn=  0.0022
     atom  67 (R=1.059)  charge=  1.5533  magn=  0.0002
     atom  68 (R=1.059)  charge=  1.5419  magn= -0.0004
     atom  69 (R=1.059)  charge=  1.5403  magn=  0.0010
     atom  70 (R=1.059)  charge=  1.5402  magn= -0.0004
     atom  71 (R=1.059)  charge=  1.5395  magn=  0.0011
     atom  72 (R=1.059)  charge=  1.5988  magn=  0.0152
     atom  73 (R=1.059)  charge=  1.5428  magn= -0.0052
     atom  74 (R=1.059)  charge=  1.4958  magn=  0.0032
     atom  75 (R=1.059)  charge=  1.5534  magn= -0.0024
     atom  76 (R=1.059)  charge=  1.5413  magn= -0.0004
     atom  77 (R=1.059)  charge=  1.5402  magn=  0.0008
     atom  78 (R=1.059)  charge=  1.5404  magn= -0.0006
     atom  79 (R=1.059)  charge=  1.5393  magn=  0.0012
     atom  80 (R=1.059)  charge=  1.5984  magn=  0.0016
     atom  81 (R=1.059)  charge=  1.5428  magn= -0.0004
     atom  82 (R=1.059)  charge=  1.4949  magn=  0.0016
     atom  83 (R=1.059)  charge=  1.5535  magn= -0.0010
     atom  84 (R=1.059)  charge=  1.5417  magn= -0.0009
     atom  85 (R=1.059)  charge=  1.5404  magn=  0.0011
     atom  86 (R=1.059)  charge=  1.5405  magn= -0.0007
     atom  87 (R=1.059)  charge=  1.5392  magn=  0.0013
     atom  88 (R=1.059)  charge=  1.5982  magn= -0.0000
     atom  89 (R=1.059)  charge=  1.5432  magn=  0.0002
     atom  90 (R=1.059)  charge=  1.4952  magn=  0.0012
     atom  91 (R=1.059)  charge=  1.5531  magn= -0.0002
     atom  92 (R=1.059)  charge=  1.5415  magn= -0.0004
     atom  93 (R=1.059)  charge=  1.5408  magn=  0.0011
     atom  94 (R=1.059)  charge=  1.5401  magn= -0.0006
     atom  95 (R=1.059)  charge=  1.5393  magn=  0.0013
     atom  96 (R=1.059)  charge=  1.5990  magn= -0.0004
     atom  97 (R=1.059)  charge=  1.5428  magn= -0.0008
     atom  98 (R=1.059)  charge=  1.4951  magn=  0.0010
     atom  99 (R=1.059)  charge=  1.5524  magn=  0.0002
     atom 100 (R=1.059)  charge=  1.5410  magn= -0.0006
     atom 101 (R=1.059)  charge=  1.5403  magn=  0.0018
     atom 102 (R=1.059)  charge=  1.5404  magn= -0.0002
     atom 103 (R=1.059)  charge=  1.5399  magn=  0.0008
     atom 104 (R=1.059)  charge=  1.5990  magn=  0.0016
     atom 105 (R=1.059)  charge=  1.5427  magn= -0.0024
     atom 106 (R=1.059)  charge=  1.4952  magn=  0.0013
     atom 107 (R=1.059)  charge=  1.5525  magn= -0.0017
     atom 108 (R=1.059)  charge=  1.5410  magn= -0.0006
     atom 109 (R=1.059)  charge=  1.5401  magn=  0.0013
     atom 110 (R=1.059)  charge=  1.5408  magn= -0.0005
     atom 111 (R=1.059)  charge=  1.5395  magn=  0.0009
     atom 112 (R=1.059)  charge=  1.5984  magn=  0.0009
     atom 113 (R=1.059)  charge=  1.5433  magn= -0.0012
     atom 114 (R=1.059)  charge=  1.4951  magn=  0.0007
     atom 115 (R=1.059)  charge=  1.5521  magn= -0.0005
     atom 116 (R=1.059)  charge=  1.5413  magn= -0.0009
     atom 117 (R=1.059)  charge=  1.5400  magn=  0.0013
     atom 118 (R=1.059)  charge=  1.5404  magn= -0.0004
     atom 119 (R=1.059)  charge=  1.5395  magn=  0.0011
     atom 120 (R=1.059)  charge=  1.5986  magn=  0.0003
     atom 121 (R=1.059)  charge=  1.5432  magn= -0.0005
     atom 122 (R=1.059)  charge=  1.4958  magn= -0.0003
     atom 123 (R=1.059)  charge=  1.5517  magn=  0.0001
     atom 124 (R=1.059)  charge=  1.5412  magn= -0.0009
     atom 125 (R=1.059)  charge=  1.5401  magn=  0.0015
     atom 126 (R=1.059)  charge=  1.5403  magn= -0.0002
     atom 127 (R=1.059)  charge=  1.5399  magn=  0.0010
     atom 128 (R=1.059)  charge=  1.5989  magn=  0.0010
     atom 129 (R=1.059)  charge=  1.5443  magn= -0.0008
     atom 130 (R=1.059)  charge=  1.4953  magn= -0.0000
     atom 131 (R=1.059)  charge=  1.5516  magn= -0.0004
     atom 132 (R=1.059)  charge=  1.5414  magn= -0.0005
     atom 133 (R=1.059)  charge=  1.5399  magn=  0.0014
     atom 134 (R=1.059)  charge=  1.5404  magn= -0.0003
     atom 135 (R=1.059)  charge=  1.5397  magn=  0.0012
     atom 136 (R=1.059)  charge=  1.5987  magn=  0.0012
     atom 137 (R=1.059)  charge=  1.5441  magn= -0.0011
     atom 138 (R=1.059)  charge=  1.4954  magn=  0.0004
     atom 139 (R=1.059)  charge=  1.5514  magn= -0.0015
     atom 140 (R=1.059)  charge=  1.5412  magn= -0.0005
     atom 141 (R=1.059)  charge=  1.5399  magn=  0.0012
     atom 142 (R=1.059)  charge=  1.5404  magn= -0.0006
     atom 143 (R=1.059)  charge=  1.5397  magn=  0.0012
     atom 144 (R=1.059)  charge=  1.5985  magn=  0.0013
     atom 145 (R=1.059)  charge=  1.5447  magn= -0.0015
     atom 146 (R=1.059)  charge=  1.4955  magn= -0.0000
     atom 147 (R=1.059)  charge=  1.5508  magn= -0.0004
     atom 148 (R=1.059)  charge=  1.5414  magn= -0.0010
     atom 149 (R=1.059)  charge=  1.5403  magn=  0.0012
     atom 150 (R=1.059)  charge=  1.5400  magn= -0.0010
     atom 151 (R=1.059)  charge=  1.5393  magn=  0.0019
     atom 152 (R=1.059)  charge=  1.5990  magn=  0.0009
     atom 153 (R=1.059)  charge=  1.5441  magn= -0.0005
     atom 154 (R=1.059)  charge=  1.4958  magn= -0.0013
     atom 155 (R=1.059)  charge=  1.5511  magn= -0.0002
     atom 156 (R=1.059)  charge=  1.5412  magn= -0.0009
     atom 157 (R=1.059)  charge=  1.5402  magn=  0.0012
     atom 158 (R=1.059)  charge=  1.5396  magn= -0.0006
     atom 159 (R=1.059)  charge=  1.5398  magn=  0.0020
     atom 160 (R=1.059)  charge=  1.5984  magn=  0.0006
     atom 161 (R=1.059)  charge=  1.5438  magn= -0.0003
     atom 162 (R=1.059)  charge=  1.4955  magn=  0.0016
     atom 163 (R=1.059)  charge=  1.5525  magn= -0.0008
     atom 164 (R=1.059)  charge=  1.5415  magn= -0.0003
     atom 165 (R=1.059)  charge=  1.5402  magn=  0.0008
     atom 166 (R=1.059)  charge=  1.5401  magn= -0.0005
     atom 167 (R=1.059)  charge=  1.5392  magn=  0.0012
     atom 168 (R=1.059)  charge=  1.5985  magn=  0.0009
     atom 169 (R=1.059)  charge=  1.5440  magn= -0.0007
     atom 170 (R=1.059)  charge=  1.4952  magn=  0.0018
     atom 171 (R=1.059)  charge=  1.5527  magn= -0.0022
     atom 172 (R=1.059)  charge=  1.5414  magn= -0.0003
     atom 173 (R=1.059)  charge=  1.5402  magn=  0.0009
     atom 174 (R=1.059)  charge=  1.5400  magn= -0.0007
     atom 175 (R=1.059)  charge=  1.5396  magn=  0.0015
     atom 176 (R=1.059)  charge=  1.5983  magn=  0.0011
     atom 177 (R=1.059)  charge=  1.5445  magn= -0.0011
     atom 178 (R=1.059)  charge=  1.4951  magn=  0.0009
     atom 179 (R=1.059)  charge=  1.5523  magn= -0.0009
     atom 180 (R=1.059)  charge=  1.5412  magn= -0.0009
     atom 181 (R=1.059)  charge=  1.5409  magn=  0.0015
     atom 182 (R=1.059)  charge=  1.5394  magn= -0.0027
     atom 183 (R=1.059)  charge=  1.5370  magn=  0.0069
     atom 184 (R=1.059)  charge=  1.5987  magn=  0.0005
     atom 185 (R=1.059)  charge=  1.5439  magn= -0.0000
     atom 186 (R=1.059)  charge=  1.4956  magn=  0.0001
     atom 187 (R=1.059)  charge=  1.5526  magn= -0.0005
     atom 188 (R=1.059)  charge=  1.5413  magn= -0.0001
     atom 189 (R=1.059)  charge=  1.5414  magn=  0.0019
     atom 190 (R=1.059)  charge=  1.5390  magn= -0.0017
     atom 191 (R=1.059)  charge=  1.5394  magn=  0.0022
     atom 192 (R=1.059)  charge=  1.5982  magn= -0.0007
     atom 193 (R=1.059)  charge=  1.5426  magn= -0.0003
     atom 194 (R=1.059)  charge=  1.4961  magn=  0.0022
     atom 195 (R=1.059)  charge=  1.5530  magn= -0.0006
     atom 196 (R=1.059)  charge=  1.5412  magn=  0.0000
     atom 197 (R=1.059)  charge=  1.5399  magn=  0.0014
     atom 198 (R=1.059)  charge=  1.5396  magn= -0.0005
     atom 199 (R=1.059)  charge=  1.5395  magn=  0.0011
     atom 200 (R=1.059)  charge=  1.5990  magn=  0.0012
     atom 201 (R=1.059)  charge=  1.5424  magn= -0.0020
     atom 202 (R=1.059)  charge=  1.4959  magn=  0.0030
     atom 203 (R=1.059)  charge=  1.5534  magn= -0.0023
     atom 204 (R=1.059)  charge=  1.5415  magn= -0.0004
     atom 205 (R=1.059)  charge=  1.5401  magn=  0.0010
     atom 206 (R=1.059)  charge=  1.5397  magn= -0.0009
     atom 207 (R=1.059)  charge=  1.5401  magn=  0.0020
     atom 208 (R=1.059)  charge=  1.5984  magn=  0.0007
     atom 209 (R=1.059)  charge=  1.5429  magn= -0.0007
     atom 210 (R=1.059)  charge=  1.4950  magn=  0.0016
     atom 211 (R=1.059)  charge=  1.5528  magn= -0.0008
     atom 212 (R=1.059)  charge=  1.5408  magn= -0.0006
     atom 213 (R=1.059)  charge=  1.5382  magn=  0.0066
     atom 214 (R=1.059)  charge=  1.5323  magn= -0.0022
     atom 215 (R=1.059)  charge=  1.4288  magn=  0.1249
     atom 216 (R=1.059)  charge=  1.5985  magn= -0.0003
     atom 217 (R=1.059)  charge=  1.5427  magn=  0.0000
     atom 218 (R=1.059)  charge=  1.4948  magn=  0.0014
     atom 219 (R=1.059)  charge=  1.5532  magn= -0.0002
     atom 220 (R=1.059)  charge=  1.5347  magn=  0.0010
     atom 221 (R=1.059)  charge=  1.5411  magn=  0.0076
     atom 222 (R=1.059)  charge=  1.5337  magn=  0.0005
     atom 223 (R=1.059)  charge=  1.5367  magn=  0.0052
     atom 224 (R=1.059)  charge=  1.5994  magn= -0.0006
     atom 225 (R=1.059)  charge=  1.5422  magn=  0.0012
     atom 226 (R=1.059)  charge=  1.4977  magn=  0.0047
     atom 227 (R=1.059)  charge=  1.5508  magn=  0.0014
     atom 228 (R=1.059)  charge=  1.5405  magn= -0.0021
     atom 229 (R=1.059)  charge=  1.5406  magn=  0.0013
     atom 230 (R=1.059)  charge=  1.5396  magn= -0.0005
     atom 231 (R=1.059)  charge=  1.5387  magn=  0.0013
     atom 232 (R=1.059)  charge=  1.5992  magn=  0.0153
     atom 233 (R=1.059)  charge=  1.5429  magn= -0.0055
     atom 234 (R=1.059)  charge=  1.4942  magn=  0.0130
     atom 235 (R=1.059)  charge=  1.5521  magn=  0.0012
     atom 236 (R=1.059)  charge=  1.5404  magn= -0.0007
     atom 237 (R=1.059)  charge=  1.5405  magn=  0.0013
     atom 238 (R=1.059)  charge=  1.5400  magn= -0.0008
     atom 239 (R=1.059)  charge=  1.5398  magn=  0.0023
     atom 240 (R=1.059)  charge=  1.5985  magn=  0.0018
     atom 241 (R=1.059)  charge=  1.5425  magn= -0.0006
     atom 242 (R=1.059)  charge=  1.4953  magn=  0.0007
     atom 243 (R=1.059)  charge=  1.5516  magn= -0.0004
     atom 244 (R=1.059)  charge=  1.5407  magn= -0.0023
     atom 245 (R=1.059)  charge=  1.5405  magn=  0.0089
     atom 246 (R=1.059)  charge=  1.5340  magn= -0.0002
     atom 247 (R=1.059)  charge=  1.4396  magn=  0.1825
     atom 248 (R=1.059)  charge=  1.5979  magn= -0.0000
     atom 249 (R=1.059)  charge=  1.5423  magn= -0.0003
     atom 250 (R=1.059)  charge=  1.4937  magn= -0.0007
     atom 251 (R=1.059)  charge=  1.5522  magn=  0.0002
     atom 252 (R=1.059)  charge=  1.4195  magn=  0.1025
     atom 253 (R=1.059)  charge=  1.5331  magn= -0.0012
     atom 254 (R=1.059)  charge=  1.5370  magn=  0.0049

     total cpu time spent up to now is      172.9 secs

     End of self-consistent calculation

 ------ SPIN UP ------------


          k = 0.0000 0.0000 0.0000 (218367 PWs)   bands (ev):

   -19.7161 -19.4777 -19.4599 -19.4322 -19.3958 -19.3355 -19.2127 -19.1909
   -19.1434 -19.1212 -19.1183 -19.1042 -19.0630 -18.9745 -18.8637 -18.8561
   -18.8387 -18.7493 -18.6657 -18.6215 -18.5809 -18.4024 -18.3976 -18.3759
   -18.3634 -18.3214 -18.3177 -18.2449 -18.1100 -18.0999 -18.0731 -18.0537
   -18.0484 -17.9579 -17.9386 -17.8467 -17.8113 -17.8069 -17.6260 -17.5928
   -17.5677 -17.5158 -17.3368 -17.3140 -17.2908 -17.2061 -17.0720 -17.0633
   -17.0404 -17.0210 -17.0119 -17.0009 -16.9974 -16.9485 -16.8682 -16.7680
   -16.7347 -16.7212 -16.6630 -16.5524 -16.5321 -16.5011 -16.3767 -16.3494
   -16.3165 -16.2740 -16.1921 -16.1686 -16.1361 -16.1225 -16.0456 -16.0257
   -15.9503 -15.9429 -15.8844 -15.7744 -15.7374 -15.7100 -15.6877 -15.6271
   -15.5800 -15.3975 -15.3871 -15.3612 -15.3505 -15.3407 -15.3003 -15.2908
   -15.2492 -15.2318 -15.2199 -15.2166 -15.1809 -15.1570 -15.1320 -15.0991
   -15.0445 -14.9755 -14.9299 -14.9035 -14.8584 -14.7526 -14.6821 -14.5638
   -14.3940 -14.3683 -14.3597 -14.3436 -14.3097 -14.2164 -14.1845 -14.1698
   -14.1479 -14.1293 -14.0915 -14.0585 -14.0366 -14.0239 -13.8293 -13.7225
   -13.6799 -13.4910 -13.4625 -13.4249 -13.3537 -13.3277 -13.2784 -13.2632
   -13.2306 -13.1867 -13.1523 -13.1384 -13.0608 -13.0327 -12.8889 -12.8826
   -12.8130 -12.7641 -12.7216 -12.6792 -12.5842 -12.5327 -12.5160 -12.4857
   -12.4744 -12.4707 -12.4399 -12.3964 -12.3898 -12.3279 -12.3068 -12.2990
   -12.2851 -12.2409 -12.2282 -12.1577 -12.1399 -12.0477 -12.0309 -11.9795
   -11.9520 -11.9291 -11.7192 -11.5156 -11.5085 -11.4073 -11.3852 -11.1672
   -11.1522 -11.1227 -11.0863 -10.9183 -10.7962 -10.7899 -10.7230 -10.7145
   -10.6718 -10.6681 -10.6650 -10.6596 -10.6579 -10.6482 -10.6348 -10.6026
   -10.5822 -10.5308 -10.4978 -10.4418 -10.4037 -10.3748 -10.3358 -10.3231
   -10.3093 -10.2951 -10.2821 -10.2556 -10.2101 -10.1928 -10.1787 -10.1636
   -10.1077 -10.1037 -10.0755  -9.9527  -9.9504  -9.9172  -9.9028  -9.8264
    -9.7855  -9.6969  -9.3956  -9.3860  -9.3448  -9.2335  -9.2249  -9.1835
    -9.1332  -9.1235  -9.0974  -9.0757  -9.0417  -9.0187  -9.0176  -9.0150
    -8.9148  -8.8635  -8.8041  -8.7367  -8.7063  -8.6879  -8.6735  -8.6662
    -8.6559  -8.6333  -8.5115  -8.4801  -8.4697  -8.4365  -8.4297  -8.3849
    -8.3520  -8.2966  -8.2839  -8.1741  -8.1472  -8.1051  -8.1007  -8.0747
    -8.0368  -7.9685  -7.9174  -7.8842  -7.8531  -7.8527  -7.8256  -7.7709
    -7.7587  -7.6809  -7.6778  -7.6723  -7.6615  -7.6479  -7.6424  -7.6230
    -7.6185  -7.5966  -7.5659  -7.5622  -7.5592  -7.5549  -7.5492  -7.5451
    -7.5442  -7.5305  -7.5269  -7.5138  -7.4987  -7.4375  -7.4258  -7.4175
    -7.3474  -7.3419  -7.2884  -7.2752  -7.2721  -7.2700  -7.2159  -7.1864
    -7.1757  -7.1193  -7.0881  -7.0499  -7.0456  -7.0307  -7.0171  -6.9528
    -6.9398  -6.9342  -6.8968  -6.8326  -6.8231  -6.8174  -6.8113  -6.7910
    -6.7644  -6.7560  -6.7515  -6.7481  -6.7014  -6.6904  -6.6793  -6.6749
    -6.6677  -6.6309  -6.6295  -6.6172  -6.5889  -6.5616  -6.5607  -6.5590
    -6.5434  -6.5254  -6.4989  -6.4934  -6.4783  -6.4606  -6.4545  -6.4465
    -6.4257  -6.4189  -6.3707  -6.3545  -6.3538  -6.3421  -6.3170  -6.3068
    -6.3027  -6.2819  -6.2500  -6.2198  -6.1823  -6.1620  -6.1210  -6.1142
    -6.1063  -6.0349  -6.0061  -5.9996  -5.9706  -5.9138  -5.9068  -5.8589
    -5.8503  -5.8467  -5.8338  -5.8131  -5.8006  -5.7658  -5.7601  -5.7401
    -5.6818  -5.6373  -5.6291  -5.5833  -5.5652  -5.5615  -5.5494  -5.5116
    -5.5024  -5.4077  -5.4054  -5.3756  -5.3639  -5.3568  -5.3436  -5.3138
    -5.3018  -5.2804  -5.2684  -5.2666  -5.2298  -5.2215  -5.2128  -5.2051
    -5.1981  -5.1441  -5.1417  -5.1142  -5.1038  -5.0771  -5.0419  -5.0321
    -5.0262  -4.9781  -4.9603  -4.8956  -4.8652  -4.8377  -4.7877  -4.7694
    -4.7348  -4.7215  -4.6759  -4.6695  -4.6490  -4.5751  -4.5662  -4.5414
    -4.5354  -4.5189  -4.5047  -4.4703  -4.4575  -4.4548  -4.4046  -4.3424
    -4.3420  -4.3315  -4.3241  -4.2460  -4.2429  -4.2356  -4.2307  -4.1415
    -4.1287  -4.1107  -4.0915  -4.0428  -4.0291  -4.0110  -3.9650  -3.9406
    -3.9325  -3.9314  -3.9261  -3.9233  -3.9031  -3.9027  -3.8388  -3.8311
    -3.8128  -3.7571  -3.7498  -3.7113  -3.6500  -3.6297  -3.5781  -3.5409
    -3.5250  -3.3401  -3.3328  -3.3318  -3.3133  -3.3087  -3.2995  -3.2848
    -3.2706  -3.2564  -3.2012  -3.1817  -3.1456  -3.1046  -3.0811  -3.0375
    -2.9829  -2.9738  -2.9507  -2.8856  -2.8127  -2.7735  -2.7599  -2.7188
    -2.6628  -2.6378  -2.5575  -2.4986  -2.4112  -2.4020  -2.3887  -2.3845
    -2.3434  -2.3105  -2.2949  -2.2855  -2.2702  -2.2032  -2.1356  -2.1217
    -2.1075  -2.0974  -2.0480  -2.0275  -1.9996  -1.9516  -1.7885  -1.7269
    -1.6591  -1.5620  -1.5198  -1.5102  -1.2525  -1.0936  -0.9728  -0.9444
    -0.8227  -0.7386  -0.5091  -0.2052  -0.1264  -0.0910  -0.0515   0.0819
     0.2209   0.4040   0.6572   0.7109   0.8783   0.9677   0.9717   1.1603
     1.1642   1.1976   1.2495   1.3979   1.4341   1.4761   1.4799   1.5008
     1.5258   1.5608   1.5864   1.6037   1.6159   1.6779   1.7774   1.8430
     1.8592   1.9035   1.9400   2.0431   2.2202   2.2548   2.2951   2.3170
     2.3771   2.3800   2.3918   2.4336   2.4935   2.5399   2.5836   2.5881
     2.6423   2.6619   2.6825   2.8079   2.8540   2.8976   3.0185   3.0210
     3.0373   3.0921   3.2054   3.2367   3.3001   3.3527   3.3696   3.3985
     3.4158   3.4958   3.5179   3.5722   3.5951   3.6016   3.6699   3.6933
     3.7340   3.8974   4.0192   4.0240   4.0344   4.0359   4.0431   4.0500
     4.0668   4.0725   4.0770   4.0854   4.0977   4.1430   4.1535   4.1775
     4.2388   4.3477   4.4231   4.4682   4.5485   4.5571   4.5635   4.5907
     4.5995   4.6563   4.6751   4.6838   4.7149   4.7178   4.8063   4.8512
     5.1602   5.1655   5.1708   5.1842   5.1900   5.2211

     occupation numbers 
     1.0000   1.0000   1.0000   1.0000   1.0000   1.0000   1.0000   1.0000
     1.0000   1.0000   1.0000   1.0000   1.0000   1.0000   1.0000   1.0000
     1.0000   1.0000   1.0000   1.0000   1.0000   1.0000   1.0000   1.0000
     1.0000   1.0000   1.0000   1.0000   1.0000   1.0000   1.0000   1.0000
     1.0000   1.0000   1.0000   1.0000   1.0000   1.0000   1.0000   1.0000
     1.0000   1.0000   1.0000   1.0000   1.0000   1.0000   1.0000   1.0000
     1.0000   1.0000   1.0000   1.0000   1.0000   1.0000   1.0000   1.0000
     1.0000   1.0000   1.0000   1.0000   1.0000   1.0000   1.0000   1.0000
[...]
     atom   35 type  1   force =     0.00446798    0.00209855    0.00855847
     atom   36 type  1   force =     0.00126744   -0.00405979   -0.01526012
     atom   37 type  1   force =     0.00222119   -0.00031447   -0.01560476
     atom   38 type  1   force =     0.00231190    0.00038882   -0.01321566
     atom   39 type  1   force =     0.00229605   -0.00133430   -0.01307708
     atom   40 type  1   force =     0.00694996    0.00509201    0.00910548
     atom   41 type  1   force =     0.00337424    0.00649533    0.00901567
     atom   42 type  1   force =     0.00512824    0.00516333    0.00833880
     atom   43 type  1   force =     0.00122181    0.00284494    0.00791242
     atom   44 type  1   force =     0.00172374    0.00027566   -0.01438967
     atom   45 type  1   force =     0.00083147    0.00235411   -0.01289829
     atom   46 type  1   force =     0.00070896    0.00134597   -0.01151438
     atom   47 type  1   force =     0.00011387   -0.00057941   -0.01134825
     atom   48 type  1   force =    -0.00162436    0.00403188    0.00762324
     atom   49 type  1   force =    -0.00186370    0.00731951    0.00701652
     atom   50 type  1   force =    -0.00080068    0.00168053    0.00743005
     atom   51 type  1   force =    -0.00171136   -0.00284251    0.00682957
     atom   52 type  1   force =    -0.00072474    0.00111408   -0.01141620
     atom   53 type  1   force =    -0.00233299    0.00296462   -0.01114291
     atom   54 type  1   force =    -0.00084032    0.00260855   -0.01100825
     atom   55 type  1   force =    -0.00080104   -0.00113462   -0.01157003
     atom   56 type  1   force =    -0.00456870   -0.00337512    0.00529077
     atom   57 type  1   force =    -0.00212086   -0.00128578    0.00469678
     atom   58 type  1   force =     0.00032994   -0.00424208    0.00614155
     atom   59 type  1   force =     0.00255656   -0.00802599    0.00612763
     atom   60 type  1   force =    -0.00394240   -0.00058540   -0.01217750
     atom   61 type  1   force =    -0.00347196    0.00085733   -0.01280380
     atom   62 type  1   force =    -0.00095170    0.00133886   -0.01236925
     atom   63 type  1   force =     0.00022715   -0.00424409   -0.01318411
     atom   64 type  1   force =     0.00501813   -0.00341165    0.00681305
     atom   65 type  1   force =     0.00923920   -0.00035359    0.00715768
     atom   66 type  1   force =     0.00638455   -0.00184323    0.00742170
     atom   67 type  1   force =     0.00683113   -0.00244311    0.00765664
     atom   68 type  1   force =     0.00109161   -0.00180978   -0.01183770
     atom   69 type  1   force =     0.00158076    0.00067098   -0.01152184
     atom   70 type  1   force =     0.00138191   -0.00019691   -0.01014234
     atom   71 type  1   force =     0.00170702   -0.00077408   -0.01032249
     atom   72 type  1   force =     0.00669001    0.00195179    0.00818307
     atom   73 type  1   force =     0.00516412    0.00630758    0.00809500
     atom   74 type  1   force =     0.00435176    0.00069438    0.00797955
     atom   75 type  1   force =     0.00254595   -0.00005415    0.00813869
     atom   76 type  1   force =     0.00140963   -0.00060466   -0.01129109
     atom   77 type  1   force =     0.00080092    0.00057273   -0.01085131
     atom   78 type  1   force =     0.00094508    0.00038159   -0.01018964
     atom   79 type  1   force =     0.00107630   -0.00013336   -0.01067045
     atom   80 type  1   force =     0.00106765    0.00247969    0.00801933
     atom   81 type  1   force =     0.00064133    0.00570478    0.00791855
     atom   82 type  1   force =     0.00053996    0.00006424    0.00811733
     atom   83 type  1   force =     0.00058724   -0.00308194    0.00777483
     atom   84 type  1   force =     0.00062735   -0.00004955   -0.01097140
     atom   85 type  1   force =    -0.00006542    0.00172799   -0.01076660
     atom   86 type  1   force =     0.00110628    0.00195373   -0.01053000
     atom   87 type  1   force =     0.00105071   -0.00008039   -0.01087920
     atom   88 type  1   force =    -0.00093885   -0.00161683    0.00735590
     atom   89 type  1   force =     0.00062398    0.00143817    0.00713985
     atom   90 type  1   force =     0.00255717   -0.00131951    0.00745616
     atom   91 type  1   force =     0.00427400   -0.00373203    0.00720481
     atom   92 type  1   force =     0.00029225   -0.00122335   -0.01133084
     atom   93 type  1   force =    -0.00014544    0.00131398   -0.01143985
     atom   94 type  1   force =     0.00157254    0.00120088   -0.01074335
     atom   95 type  1   force =     0.00222645   -0.00164061   -0.01077553
     atom   96 type  1   force =     0.00435062   -0.00112702    0.00729520
     atom   97 type  1   force =     0.00467503    0.00264619    0.00736938
     atom   98 type  1   force =     0.00223249   -0.00018454    0.00750235
     atom   99 type  1   force =     0.00336693   -0.00334377    0.00764505
     atom  100 type  1   force =     0.00093224   -0.00055540   -0.00989798
     atom  101 type  1   force =     0.00106663   -0.00118977   -0.00949859
     atom  102 type  1   force =     0.00142274   -0.00109976   -0.00912765
     atom  103 type  1   force =     0.00071526   -0.00046377   -0.00943409
     atom  104 type  1   force =     0.00462365    0.00024315    0.00777155
     atom  105 type  1   force =     0.00440075    0.00389968    0.00802918
     atom  106 type  1   force =     0.00130850   -0.00015332    0.00825180
     atom  107 type  1   force =     0.00216168   -0.00266527    0.00829561
     atom  108 type  1   force =     0.00076074   -0.00021902   -0.00965898
     atom  109 type  1   force =     0.00061316   -0.00109141   -0.00967364
     atom  110 type  1   force =     0.00092308    0.00024655   -0.00976811
     atom  111 type  1   force =     0.00087159    0.00058871   -0.01037786
     atom  112 type  1   force =     0.00180824    0.00016292    0.00826491
     atom  113 type  1   force =     0.00066514    0.00464036    0.00826468
     atom  114 type  1   force =     0.00042565    0.00150541    0.00812125
     atom  115 type  1   force =     0.00167996   -0.00259445    0.00777487
     atom  116 type  1   force =     0.00112472    0.00066730   -0.01054664
     atom  117 type  1   force =     0.00155998    0.00091227   -0.01035608
     atom  118 type  1   force =     0.00145905    0.00169317   -0.01029954
     atom  119 type  1   force =     0.00184363   -0.00006530   -0.01044046
     atom  120 type  1   force =     0.00220372   -0.00082539    0.00778674
     atom  121 type  1   force =     0.00149349    0.00345208    0.00763748
     atom  122 type  1   force =     0.00179548    0.00136114    0.00752067
     atom  123 type  1   force =     0.00303865   -0.00225746    0.00725682
     atom  124 type  1   force =     0.00116828   -0.00008491   -0.01051386
     atom  125 type  1   force =     0.00144933    0.00060197   -0.01023066
     atom  126 type  1   force =     0.00183937    0.00010556   -0.00989524
     atom  127 type  1   force =     0.00103942   -0.00117046   -0.00981404
     atom  128 type  1   force =     0.00250969   -0.00283587    0.00725872
     atom  129 type  1   force =     0.00174606    0.00337186    0.00742682
     atom  130 type  1   force =     0.00137900    0.00079073    0.00748343
     atom  131 type  1   force =     0.00104908   -0.00343002    0.00773246
     atom  132 type  1   force =     0.00208071   -0.00099324   -0.00943513
     atom  133 type  1   force =     0.00121387   -0.00073059   -0.00902426
     atom  134 type  1   force =     0.00028166   -0.00102864   -0.00900736
     atom  135 type  1   force =     0.00024560   -0.00143534   -0.00925084
     atom  136 type  1   force =     0.00254187   -0.00223766    0.00789676
     atom  137 type  1   force =     0.00142413    0.00335540    0.00821242
     atom  138 type  1   force =     0.00067547    0.00102656    0.00822517
     atom  139 type  1   force =     0.00134103   -0.00247291    0.00822819
     atom  140 type  1   force =     0.00078256   -0.00037960   -0.00927474
     atom  141 type  1   force =     0.00105226   -0.00061761   -0.00946236
     atom  142 type  1   force =     0.00109176    0.00066194   -0.00954959
     atom  143 type  1   force =     0.00190654    0.00071119   -0.01008740
     atom  144 type  1   force =     0.00224490   -0.00253272    0.00830048
     atom  145 type  1   force =     0.00115971    0.00414440    0.00816987
     atom  146 type  1   force =     0.00204238    0.00338402    0.00783897
     atom  147 type  1   force =     0.00259409   -0.00166663    0.00736880
     atom  148 type  1   force =     0.00110822    0.00083249   -0.01029700
     atom  149 type  1   force =     0.00213651    0.00229277   -0.01018216
     atom  150 type  1   force =     0.00278136    0.00332262   -0.01002521
     atom  151 type  1   force =     0.00351430   -0.00064176   -0.01000117
     atom  152 type  1   force =     0.00331549   -0.00211728    0.00756980
     atom  153 type  1   force =     0.00276755    0.00430324    0.00742005
     atom  154 type  1   force =     0.00237851    0.00197675    0.00701628
     atom  155 type  1   force =     0.00210772   -0.00271712    0.00685382
     atom  156 type  1   force =     0.00252886   -0.00007696   -0.01000831
     atom  157 type  1   force =     0.00299266    0.00102494   -0.00971151
     atom  158 type  1   force =     0.00258763    0.00080480   -0.00958992
     atom  159 type  1   force =     0.00236534   -0.00347392   -0.00960147
     atom  160 type  1   force =     0.00011772   -0.00257329    0.00648667
     atom  161 type  1   force =     0.00045339    0.00199452    0.00701397
     atom  162 type  1   force =    -0.00049323   -0.00155829    0.00708972
     atom  163 type  1   force =    -0.00179891   -0.00300410    0.00764876
     atom  164 type  1   force =     0.00176970   -0.00389272   -0.00961767
     atom  165 type  1   force =     0.00072730   -0.00141503   -0.00928951
     atom  166 type  1   force =    -0.00012382   -0.00161570   -0.00970791
     atom  167 type  1   force =    -0.00091795   -0.00177574   -0.01002929
     atom  168 type  1   force =    -0.00064436   -0.00225983    0.00789273
     atom  169 type  1   force =     0.00038847    0.00295770    0.00809847
     atom  170 type  1   force =     0.00025933    0.00019925    0.00795976
     atom  171 type  1   force =    -0.00011705   -0.00096785    0.00762087
     atom  172 type  1   force =     0.00035902   -0.00070941   -0.00948924
     atom  173 type  1   force =     0.00048509    0.00079568   -0.00948149
     atom  174 type  1   force =     0.00053745    0.00143294   -0.00982206
     atom  175 type  1   force =     0.00143238    0.00276016   -0.01012761
     atom  176 type  1   force =     0.00045284   -0.00147383    0.00787411
     atom  177 type  1   force =     0.00257180    0.00454492    0.00753361
     atom  178 type  1   force =     0.00339855    0.00256584    0.00657278
     atom  179 type  1   force =     0.00317055   -0.00107520    0.00571235
     atom  180 type  1   force =     0.00197839    0.00186689   -0.01016577
     atom  181 type  1   force =     0.00411994    0.00414589   -0.01008439
     atom  182 type  1   force =     0.00772213    0.00690545   -0.01005693
     atom  183 type  1   force =     0.01106410    0.00059891   -0.01032529
     atom  184 type  1   force =     0.00168126   -0.00139045    0.00661439
     atom  185 type  1   force =     0.00263145    0.00361872    0.00641400
     atom  186 type  1   force =     0.00299607   -0.00069575    0.00535779
     atom  187 type  1   force =     0.00116585   -0.00343156    0.00564356
     atom  188 type  1   force =     0.00646059   -0.00107213   -0.00998157
     atom  189 type  1   force =     0.00533973    0.00070096   -0.00977033
     atom  190 type  1   force =     0.00604404   -0.00193999   -0.00995302
     atom  191 type  1   force =     0.00317177   -0.00668717   -0.01002195
     atom  192 type  1   force =    -0.00116799   -0.00298928    0.00503470
     atom  193 type  1   force =    -0.00214653   -0.00024670    0.00619732
     atom  194 type  1   force =    -0.00483649   -0.00391523    0.00645970
     atom  195 type  1   force =    -0.00618281   -0.00397129    0.00756554
     atom  196 type  1   force =     0.00154936   -0.00765812   -0.01098379
     atom  197 type  1   force =    -0.00014910   -0.00309046   -0.01079932
     atom  198 type  1   force =    -0.00350663   -0.00274536   -0.01267876
     atom  199 type  1   force =    -0.00152017   -0.00164235   -0.01270001
     atom  200 type  1   force =    -0.00389409   -0.00024049    0.00776596
     atom  201 type  1   force =    -0.00399789    0.00370822    0.00784826
     atom  202 type  1   force =    -0.00398095    0.00168989    0.00765202
     atom  203 type  1   force =    -0.00189827    0.00252429    0.00698654
     atom  204 type  1   force =    -0.00153020   -0.00012061   -0.01097259
     atom  205 type  1   force =    -0.00046876    0.00257133   -0.01049516
     atom  206 type  1   force =    -0.00195403    0.00306942   -0.01112861
     atom  207 type  1   force =    -0.00070630    0.00531054   -0.01083544
     atom  208 type  1   force =    -0.00052221    0.00276148    0.00707618
     atom  209 type  1   force =     0.00160830    0.00681042    0.00606905
     atom  210 type  1   force =     0.00155832    0.00370067    0.00412559
     atom  211 type  1   force =     0.00232415   -0.00035309    0.00162920
     atom  212 type  1   force =     0.00223116    0.00627406   -0.01031460
     atom  213 type  1   force =     0.00603670    0.01066517   -0.01017637
     atom  214 type  1   force =     0.00528689    0.02117356   -0.01094959
     atom  215 type  1   force =     0.02024121    0.01414244   -0.01172636
     atom  216 type  1   force =     0.00282152    0.00053516    0.00372124
     atom  217 type  1   force =     0.00319956    0.00212252    0.00348807
     atom  218 type  1   force =     0.00078312   -0.00414801    0.00123630
     atom  219 type  1   force =    -0.00253258   -0.00727103    0.00315567
     atom  220 type  1   force =     0.02041095   -0.00275779   -0.01121959
     atom  221 type  1   force =     0.01438056   -0.00743990   -0.01104428
     atom  222 type  1   force =     0.02033899   -0.02108660   -0.01234193
     atom  223 type  1   force =     0.00367846   -0.01426532   -0.01253696
     atom  224 type  1   force =    -0.00512864   -0.00722410    0.00283475
     atom  225 type  1   force =    -0.00935366   -0.00212842    0.00545418
     atom  226 type  1   force =    -0.01043389   -0.00436070    0.00674921
     atom  227 type  1   force =    -0.00483883    0.00037827    0.00833774
     atom  228 type  1   force =    -0.00352284   -0.01407928   -0.01464404
     atom  229 type  1   force =    -0.00427851   -0.00581546   -0.01498453
     atom  230 type  1   force =    -0.00328296   -0.00228875   -0.01797885
     atom  231 type  1   force =    -0.00427352    0.00021547   -0.01703653
     atom  232 type  1   force =    -0.00728558    0.00035133    0.00815307
     atom  233 type  1   force =    -0.00503192    0.00698068    0.00814381
     atom  234 type  1   force =    -0.00704870    0.00601957    0.00826080
     atom  235 type  1   force =    -0.00306613    0.00429082    0.00700731
     atom  236 type  1   force =    -0.00278089    0.00022378   -0.01399238
     atom  237 type  1   force =    -0.00235603    0.00252415   -0.01264879
     atom  238 type  1   force =    -0.00119512    0.00391838   -0.01273976
     atom  239 type  1   force =    -0.00294940    0.00464247   -0.01168030
     atom  240 type  1   force =    -0.00236966    0.00572900    0.00640145
     atom  241 type  1   force =    -0.00135542    0.00982831    0.00453982
     atom  242 type  1   force =    -0.00368434    0.00573122    0.00321998
     atom  243 type  1   force =    -0.00267786   -0.00033288   -0.00083149
     atom  244 type  1   force =    -0.00207658    0.00751239   -0.01099859
     atom  245 type  1   force =    -0.00501003    0.01623697   -0.01107054
     atom  246 type  1   force =    -0.01128040    0.01775363   -0.01184495
     atom  247 type  1   force =    -0.02501282    0.01503430   -0.01260235
     atom  248 type  1   force =    -0.00015038    0.00024935   -0.00146640
     atom  249 type  1   force =    -0.00079781    0.00054202   -0.00246139
     atom  250 type  1   force =    -0.00529906   -0.00623266   -0.00348971
     atom  251 type  1   force =    -0.00590629   -0.01263923    0.00058034
     atom  252 type  1   force =    -0.00239786   -0.02707350   -0.01371039
     atom  253 type  1   force =    -0.02542610   -0.02163577   -0.01455114
     atom  254 type  1   force =    -0.00869428   -0.01503174   -0.01607395

     Total force =     2.051827     Total SCF correction =     0.193207

     Writing all to output data dir ./calc.save/

     init_run     :      5.45s CPU      5.52s WALL (       1 calls)
     electrons    :    165.87s CPU    167.52s WALL (       1 calls)
     forces       :      1.73s CPU      1.76s WALL (       1 calls)

     Called by init_run:
     wfcinit      :      2.84s CPU      2.88s WALL (       1 calls)
     wfcinit:wfcr :      2.78s CPU      2.82s WALL (       2 calls)
     potinit      :      1.03s CPU      1.05s WALL (       1 calls)
     hinit0       :      0.89s CPU      0.90s WALL (       1 calls)

     Called by electrons:
     c_bands      :    147.39s CPU    148.81s WALL (      13 calls)
     sum_band     :     11.32s CPU     11.42s WALL (      13 calls)
     v_of_rho     :      7.74s CPU      7.78s WALL (      14 calls)
     v_h          :      0.06s CPU      0.06s WALL (      14 calls)
     v_xc         :      8.18s CPU      8.23s WALL (      15 calls)
     mix_rho      :      0.15s CPU      0.15s WALL (      13 calls)
     vdW_kernel   :      0.50s CPU      0.51s WALL (       1 calls)

     Called by c_bands:
     init_us_2    :      0.22s CPU      0.22s WALL (      56 calls)
     init_us_2:cp :      0.22s CPU      0.22s WALL (      56 calls)
     regterg      :    146.67s CPU    148.08s WALL (      28 calls)

     Called by sum_band:
     sum_band:wei :      0.01s CPU      0.01s WALL (      13 calls)
     sum_band:loo :     11.09s CPU     11.18s WALL (      13 calls)
     sum_band:buf :      0.03s CPU      0.03s WALL (      26 calls)
     sum_band:ini :      0.10s CPU      0.10s WALL (      26 calls)

     Called by *egterg:
     rdiaghg      :     39.85s CPU     40.01s WALL (     323 calls)
     regterg:over :      8.25s CPU      8.62s WALL (     295 calls)
     regterg:upda :      6.17s CPU      6.20s WALL (     295 calls)
     regterg:last :      9.03s CPU      9.07s WALL (      74 calls)
     rdiaghg:chol :      0.61s CPU      0.62s WALL (     323 calls)
     rdiaghg:inve :      0.05s CPU      0.05s WALL (     323 calls)
     rdiaghg:para :      1.99s CPU      2.00s WALL (     646 calls)
     h_psi        :     83.28s CPU     84.11s WALL (     325 calls)
     g_psi        :      0.09s CPU      0.09s WALL (     295 calls)

     Called by h_psi:
     h_psi:calbec :      6.89s CPU      7.06s WALL (     325 calls)
     vloc_psi     :     70.62s CPU     71.25s WALL (     325 calls)
     add_vuspsi   :      5.67s CPU      5.70s WALL (     325 calls)

     General routines
     calbec       :      7.44s CPU      7.64s WALL (     333 calls)
     fft          :      5.63s CPU      5.66s WALL (    1180 calls)
     ffts         :      0.11s CPU      0.11s WALL (      26 calls)
     fftw         :     77.62s CPU     78.31s WALL (   59126 calls)

     Parallel routines
     fft_scatt_xy :      4.30s CPU      4.33s WALL (   60332 calls)
     fft_scatt_yz :     54.97s CPU     55.46s WALL (   60332 calls)

     PWSCF        :   3m 4.64s CPU   3m18.15s WALL


   This run was terminated on:  16:50:28   6Apr2023            

=------------------------------------------------------------------------------=
   JOB DONE.
=------------------------------------------------------------------------------=
