
     Program PWSCF v.7.0 starts on  6Apr2023 at 16:33:29 

     This program is part of the open-source Quantum ESPRESSO suite
     for quantum simulation of materials; please cite
         "P. Giannozzi et al., J. Phys.:Condens. Matter 21 395502 (2009);
         "P. Giannozzi et al., J. Phys.:Condens. Matter 29 465901 (2017);
         "P. Giannozzi et al., J. Chem. Phys. 152 154105 (2020);
          URL http://www.quantum-espresso.org", 
     in publications or presentations arising from this work. More details at
     http://www.quantum-espresso.org/quote

     Parallel version (MPI), running on   240 processors

     MPI processes distributed on    20 nodes
     R & G space division:  proc/nbgrp/npool/nimage =     240
     167690 MiB available memory on the printing compute node when the environment starts

     Reading input from pw.inp
Warning: card &CELL ignored
Warning: card / ignored

     Current dimensions of program PWSCF are:
     Max number of different atomic species (ntypx) = 10
     Max number of k-points (npk) =  40000
     Max angular momentum in pseudopotentials (lmaxx) =  4
     Message from routine cell_base_init:
     DEPRECATED: use true lattice parameter, not A to a.u. conversion factor

     IMPORTANT: XC functional enforced from input :
     Exchange-correlation= VDW-DF
                           (   1   4   4   0   1   0   0)
     Any further DFT definition will be discarded
     Please, verify this is what you really want


     gamma-point specific algorithms are used

     Subspace diagonalization in iterative solution of the eigenvalue problem:
     one sub-group per band group will be used
     scalapack distributed-memory algorithm (size of sub-group: 15* 15 procs)


     Parallelization info
     --------------------
     sticks:   dense  smooth     PW     G-vecs:    dense   smooth      PW
     Min         126     126     30                14538    14538    1798
     Max         128     128     32                14568    14568    1832
     Sum       30679   30679   7661              3493573  3493573  436733

     Using Pencil Decomposition



     bravais-lattice index     =            0
     lattice parameter (alat)  =       1.0000  a.u.
     unit-cell volume          =   36138.3093 (a.u.)^3
     number of atoms/cell      =          254
     number of atomic types    =            1
     number of electrons       =      1016.00
     number of Kohn-Sham states=          614
     kinetic-energy cutoff     =      80.0000  Ry
     charge density cutoff     =     320.0000  Ry
     scf convergence threshold =      1.0E-01
     mixing beta               =       0.5000
     number of iterations used =            8  TF        mixing
     Exchange-correlation= VDW-DF
                           (   1   4   4   0   1   0   0)

     celldm(1)=   1.000000  celldm(2)=   0.000000  celldm(3)=   0.000000
     celldm(4)=   0.000000  celldm(5)=   0.000000  celldm(6)=   0.000000

     crystal axes: (cart. coord. in units of alat)
               a(1) = (  37.295632   0.000000   0.000000 )  
               a(2) = (   0.000000  32.298965   0.000000 )  
               a(3) = (   0.000000   0.000000  30.000000 )  

     reciprocal axes: (cart. coord. in units 2 pi/alat)
               b(1) = (  0.026813  0.000000  0.000000 )  
               b(2) = (  0.000000  0.030961  0.000000 )  
               b(3) = (  0.000000  0.000000  0.033333 )  


     PseudoPot. # 1 for C  read from file:
     .././06_C_4_1.2_1.2_pbe_n_v1.0.upf
     MD5 check sum: 7e0e17a2517474b8bea671dc4b65026c
     Pseudo is Norm-conserving + core correction, Zval =  4.0
     Generated using ONCVPSP code by D. R. Hamann
     Using radial grid of 1246 points,  4 beta functions with: 
                l(1) =   0
                l(2) =   0
                l(3) =   1
                l(4) =   1

     atomic species   valence    mass     pseudopotential
        C              4.00    12.00000     C ( 1.00)

     Starting magnetic structure 
     atomic species   magnetization
        C            1.000

     No symmetry found


                                    s                        frac. trans.

      isym =  1     identity                                     

 cryst.   s( 1) = (     1          0          0      )
                  (     0          1          0      )
                  (     0          0          1      )

 cart.    s( 1) = (  1.0000000  0.0000000  0.0000000 )
                  (  0.0000000  1.0000000  0.0000000 )
                  (  0.0000000  0.0000000  1.0000000 )


   Cartesian axes

     site n.     atom                  positions (alat units)
         1           C   tau(   1) = (   0.0000000   0.0000000  18.0000000  )
         2           C   tau(   2) = (   0.0000000   2.6915535  18.0000000  )
         3           C   tau(   3) = (   2.3309770   4.0373706  18.0000000  )
         4           C   tau(   4) = (   2.3309770   1.3457364  12.0000000  )
         5           C   tau(   5) = (   2.3309770   4.0373706  12.0000000  )
         6           C   tau(   6) = (   4.6619540   5.3831070  12.0000000  )
         7           C   tau(   7) = (   4.6619540   8.0747412  12.0000000  )
         8           C   tau(   8) = (   0.0000000   8.0747412  18.0000000  )
         9           C   tau(   9) = (   0.0000000  10.7662947  18.0000000  )
        10           C   tau(  10) = (   2.3309770  12.1121118  18.0000000  )
        11           C   tau(  11) = (   2.3309770  15.0727964  18.0000000  )
        12           C   tau(  12) = (   2.3309770   9.4204776  12.0000000  )
        13           C   tau(  13) = (   2.3309770  12.1121118  12.0000000  )
        14           C   tau(  14) = (   4.6619540  13.4578482  12.0000000  )
        15           C   tau(  15) = (   4.6619540  16.1494824  12.0000000  )
        16           C   tau(  16) = (   0.0000000  16.1494824  18.0000000  )
        17           C   tau(  17) = (   0.0000000  18.8410359  18.0000000  )
        18           C   tau(  18) = (   2.3309770  20.1868530  18.0000000  )
        19           C   tau(  19) = (   2.3309770  23.1475376  18.0000000  )
        20           C   tau(  20) = (   2.3309770  17.4952188  12.0000000  )
        21           C   tau(  21) = (   2.3309770  20.1868530  12.0000000  )
        22           C   tau(  22) = (   4.6619540  21.5325894  12.0000000  )
        23           C   tau(  23) = (   4.6619540  24.2242236  12.0000000  )
        24           C   tau(  24) = (   0.0000000  24.2242236  18.0000000  )
        25           C   tau(  25) = (   0.0000000  26.9157771  18.0000000  )
        26           C   tau(  26) = (   2.3309770  28.2615942  18.0000000  )
        27           C   tau(  27) = (   2.3309770  31.2222788  18.0000000  )
        28           C   tau(  28) = (   2.3309770  25.5699600  12.0000000  )
        29           C   tau(  29) = (   2.3309770  28.2615942  12.0000000  )
        30           C   tau(  30) = (   4.6619540  29.6073306  12.0000000  )
        31           C   tau(  31) = (   4.6619540  32.2989648  12.0000000  )
        32           C   tau(  32) = (   4.6619540   0.0000000  18.0000000  )
        33           C   tau(  33) = (   4.6619540   2.6915535  18.0000000  )
        34           C   tau(  34) = (   6.9929310   4.0373706  18.0000000  )
        35           C   tau(  35) = (   6.9929310   6.9980552  18.0000000  )
        36           C   tau(  36) = (   6.9929310   1.3457364  12.0000000  )
        37           C   tau(  37) = (   6.9929310   4.0373706  12.0000000  )
        38           C   tau(  38) = (   9.3239080   5.3831070  12.0000000  )
        39           C   tau(  39) = (   9.3239080   8.0747412  12.0000000  )
        40           C   tau(  40) = (   4.6619540   8.0747412  18.0000000  )
        41           C   tau(  41) = (   4.6619540  10.7662947  18.0000000  )
        42           C   tau(  42) = (   6.9929310  12.1121118  18.0000000  )
        43           C   tau(  43) = (   6.9929310  15.0727964  18.0000000  )
        44           C   tau(  44) = (   6.9929310   9.4204776  12.0000000  )
        45           C   tau(  45) = (   6.9929310  12.1121118  12.0000000  )
        46           C   tau(  46) = (   9.3239080  13.4578482  12.0000000  )
        47           C   tau(  47) = (   9.3239080  16.1494824  12.0000000  )
        48           C   tau(  48) = (   4.6619540  16.1494824  18.0000000  )
        49           C   tau(  49) = (   4.6619540  18.8410359  18.0000000  )
        50           C   tau(  50) = (   6.9929310  20.1868530  18.0000000  )
        51           C   tau(  51) = (   6.9929310  23.1475376  18.0000000  )
        52           C   tau(  52) = (   6.9929310  17.4952188  12.0000000  )
        53           C   tau(  53) = (   6.9929310  20.1868530  12.0000000  )
        54           C   tau(  54) = (   9.3239080  21.5325894  12.0000000  )
        55           C   tau(  55) = (   9.3239080  24.2242236  12.0000000  )
        56           C   tau(  56) = (   4.6619540  24.2242236  18.0000000  )
        57           C   tau(  57) = (   4.6619540  26.9157771  18.0000000  )
        58           C   tau(  58) = (   6.9929310  28.2615942  18.0000000  )
        59           C   tau(  59) = (   6.9929310  31.2222788  18.0000000  )
        60           C   tau(  60) = (   6.9929310  25.5699600  12.0000000  )
        61           C   tau(  61) = (   6.9929310  28.2615942  12.0000000  )
        62           C   tau(  62) = (   9.3239080  29.6073306  12.0000000  )
        63           C   tau(  63) = (   9.3239080  32.2989648  12.0000000  )
        64           C   tau(  64) = (   9.3239080   0.0000000  18.0000000  )
        65           C   tau(  65) = (   9.3239080   2.6915535  18.0000000  )
        66           C   tau(  66) = (  11.6548850   4.0373706  18.0000000  )
        67           C   tau(  67) = (  11.6548850   6.9980552  18.0000000  )
        68           C   tau(  68) = (  11.6548850   1.3457364  12.0000000  )
        69           C   tau(  69) = (  11.6548850   4.0373706  12.0000000  )
        70           C   tau(  70) = (  13.9858620   5.3831070  12.0000000  )
        71           C   tau(  71) = (  13.9858620   8.0747412  12.0000000  )
        72           C   tau(  72) = (   9.3239080   8.0747412  18.0000000  )
        73           C   tau(  73) = (   9.3239080  10.7662947  18.0000000  )
        74           C   tau(  74) = (  11.6548850  12.1121118  18.0000000  )
        75           C   tau(  75) = (  11.6548850  15.0727964  18.0000000  )
        76           C   tau(  76) = (  11.6548850   9.4204776  12.0000000  )
        77           C   tau(  77) = (  11.6548850  12.1121118  12.0000000  )
        78           C   tau(  78) = (  13.9858620  13.4578482  12.0000000  )
        79           C   tau(  79) = (  13.9858620  16.1494824  12.0000000  )
        80           C   tau(  80) = (   9.3239080  16.1494824  18.0000000  )
        81           C   tau(  81) = (   9.3239080  18.8410359  18.0000000  )
        82           C   tau(  82) = (  11.6548850  20.1868530  18.0000000  )
        83           C   tau(  83) = (  11.6548850  23.1475376  18.0000000  )
        84           C   tau(  84) = (  11.6548850  17.4952188  12.0000000  )
        85           C   tau(  85) = (  11.6548850  20.1868530  12.0000000  )
        86           C   tau(  86) = (  13.9858620  21.5325894  12.0000000  )
        87           C   tau(  87) = (  13.9858620  24.2242236  12.0000000  )
        88           C   tau(  88) = (   9.3239080  24.2242236  18.0000000  )
        89           C   tau(  89) = (   9.3239080  26.9157771  18.0000000  )
        90           C   tau(  90) = (  11.6548850  28.2615942  18.0000000  )
        91           C   tau(  91) = (  11.6548850  31.2222788  18.0000000  )
        92           C   tau(  92) = (  11.6548850  25.5699600  12.0000000  )
        93           C   tau(  93) = (  11.6548850  28.2615942  12.0000000  )
        94           C   tau(  94) = (  13.9858620  29.6073306  12.0000000  )
        95           C   tau(  95) = (  13.9858620  32.2989648  12.0000000  )
        96           C   tau(  96) = (  13.9858620   0.0000000  18.0000000  )
        97           C   tau(  97) = (  13.9858620   2.6915535  18.0000000  )
        98           C   tau(  98) = (  16.3168390   4.0373706  18.0000000  )
        99           C   tau(  99) = (  16.3168390   6.9980552  18.0000000  )
       100           C   tau( 100) = (  16.3168390   1.3457364  12.0000000  )
       101           C   tau( 101) = (  16.3168390   4.0373706  12.0000000  )
       102           C   tau( 102) = (  18.6478161   5.3831070  12.0000000  )
       103           C   tau( 103) = (  18.6478161   8.0747412  12.0000000  )
       104           C   tau( 104) = (  13.9858620   8.0747412  18.0000000  )
       105           C   tau( 105) = (  13.9858620  10.7662947  18.0000000  )
       106           C   tau( 106) = (  16.3168390  12.1121118  18.0000000  )
       107           C   tau( 107) = (  16.3168390  15.0727964  18.0000000  )
       108           C   tau( 108) = (  16.3168390   9.4204776  12.0000000  )
       109           C   tau( 109) = (  16.3168390  12.1121118  12.0000000  )
       110           C   tau( 110) = (  18.6478161  13.4578482  12.0000000  )
       111           C   tau( 111) = (  18.6478161  16.1494824  12.0000000  )
       112           C   tau( 112) = (  13.9858620  16.1494824  18.0000000  )
       113           C   tau( 113) = (  13.9858620  18.8410359  18.0000000  )
       114           C   tau( 114) = (  16.3168390  20.1868530  18.0000000  )
       115           C   tau( 115) = (  16.3168390  23.1475376  18.0000000  )
       116           C   tau( 116) = (  16.3168390  17.4952188  12.0000000  )
       117           C   tau( 117) = (  16.3168390  20.1868530  12.0000000  )
       118           C   tau( 118) = (  18.6478161  21.5325894  12.0000000  )
       119           C   tau( 119) = (  18.6478161  24.2242236  12.0000000  )
       120           C   tau( 120) = (  13.9858620  24.2242236  18.0000000  )
       121           C   tau( 121) = (  13.9858620  26.9157771  18.0000000  )
       122           C   tau( 122) = (  16.3168390  28.2615942  18.0000000  )
       123           C   tau( 123) = (  16.3168390  31.2222788  18.0000000  )
       124           C   tau( 124) = (  16.3168390  25.5699600  12.0000000  )
       125           C   tau( 125) = (  16.3168390  28.2615942  12.0000000  )
       126           C   tau( 126) = (  18.6478161  29.6073306  12.0000000  )
       127           C   tau( 127) = (  18.6478161  32.2989648  12.0000000  )
       128           C   tau( 128) = (  18.6478161   0.0000000  18.0000000  )
       129           C   tau( 129) = (  18.6478161   2.6915535  18.0000000  )
       130           C   tau( 130) = (  20.9787931   4.0373706  18.0000000  )
       131           C   tau( 131) = (  20.9787931   6.9980552  18.0000000  )
       132           C   tau( 132) = (  20.9787931   1.3457364  12.0000000  )
       133           C   tau( 133) = (  20.9787931   4.0373706  12.0000000  )
       134           C   tau( 134) = (  23.3097701   5.3831070  12.0000000  )
       135           C   tau( 135) = (  23.3097701   8.0747412  12.0000000  )
       136           C   tau( 136) = (  18.6478161   8.0747412  18.0000000  )
       137           C   tau( 137) = (  18.6478161  10.7662947  18.0000000  )
       138           C   tau( 138) = (  20.9787931  12.1121118  18.0000000  )
       139           C   tau( 139) = (  20.9787931  15.0727964  18.0000000  )
       140           C   tau( 140) = (  20.9787931   9.4204776  12.0000000  )
       141           C   tau( 141) = (  20.9787931  12.1121118  12.0000000  )
       142           C   tau( 142) = (  23.3097701  13.4578482  12.0000000  )
       143           C   tau( 143) = (  23.3097701  16.1494824  12.0000000  )
       144           C   tau( 144) = (  18.6478161  16.1494824  18.0000000  )
       145           C   tau( 145) = (  18.6478161  18.8410359  18.0000000  )
       146           C   tau( 146) = (  20.9787931  20.1868530  18.0000000  )
       147           C   tau( 147) = (  20.9787931  23.1475376  18.0000000  )
       148           C   tau( 148) = (  20.9787931  17.4952188  12.0000000  )
       149           C   tau( 149) = (  20.9787931  20.1868530  12.0000000  )
       150           C   tau( 150) = (  23.3097701  21.5325894  12.0000000  )
       151           C   tau( 151) = (  23.3097701  24.2242236  12.0000000  )
       152           C   tau( 152) = (  18.6478161  24.2242236  18.0000000  )
       153           C   tau( 153) = (  18.6478161  26.9157771  18.0000000  )
       154           C   tau( 154) = (  20.9787931  28.2615942  18.0000000  )
       155           C   tau( 155) = (  20.9787931  31.2222788  18.0000000  )
       156           C   tau( 156) = (  20.9787931  25.5699600  12.0000000  )
       157           C   tau( 157) = (  20.9787931  28.2615942  12.0000000  )
       158           C   tau( 158) = (  23.3097701  29.6073306  12.0000000  )
       159           C   tau( 159) = (  23.3097701  32.2989648  12.0000000  )
       160           C   tau( 160) = (  23.3097701   0.0000000  18.0000000  )
       161           C   tau( 161) = (  23.3097701   2.6915535  18.0000000  )
       162           C   tau( 162) = (  25.6407471   4.0373706  18.0000000  )
       163           C   tau( 163) = (  25.6407471   6.9980552  18.0000000  )
       164           C   tau( 164) = (  25.6407471   1.3457364  12.0000000  )
       165           C   tau( 165) = (  25.6407471   4.0373706  12.0000000  )
       166           C   tau( 166) = (  27.9717241   5.3831070  12.0000000  )
       167           C   tau( 167) = (  27.9717241   8.0747412  12.0000000  )
       168           C   tau( 168) = (  23.3097701   8.0747412  18.0000000  )
       169           C   tau( 169) = (  23.3097701  10.7662947  18.0000000  )
       170           C   tau( 170) = (  25.6407471  12.1121118  18.0000000  )
       171           C   tau( 171) = (  25.6407471  15.0727964  18.0000000  )
       172           C   tau( 172) = (  25.6407471   9.4204776  12.0000000  )
       173           C   tau( 173) = (  25.6407471  12.1121118  12.0000000  )
       174           C   tau( 174) = (  27.9717241  13.4578482  12.0000000  )
       175           C   tau( 175) = (  27.9717241  16.1494824  12.0000000  )
       176           C   tau( 176) = (  23.3097701  16.1494824  18.0000000  )
       177           C   tau( 177) = (  23.3097701  18.8410359  18.0000000  )
       178           C   tau( 178) = (  25.6407471  20.1868530  18.0000000  )
       179           C   tau( 179) = (  25.6407471  23.1475376  18.0000000  )
       180           C   tau( 180) = (  25.6407471  17.4952188  12.0000000  )
       181           C   tau( 181) = (  25.6407471  20.1868530  12.0000000  )
       182           C   tau( 182) = (  27.9717241  21.5325894  12.0000000  )
       183           C   tau( 183) = (  27.9717241  24.2242236  12.0000000  )
       184           C   tau( 184) = (  23.3097701  24.2242236  18.0000000  )
       185           C   tau( 185) = (  23.3097701  26.9157771  18.0000000  )
       186           C   tau( 186) = (  25.6407471  28.2615942  18.0000000  )
       187           C   tau( 187) = (  25.6407471  31.2222788  18.0000000  )
       188           C   tau( 188) = (  25.6407471  25.5699600  12.0000000  )
       189           C   tau( 189) = (  25.6407471  28.2615942  12.0000000  )
       190           C   tau( 190) = (  27.9717241  29.6073306  12.0000000  )
       191           C   tau( 191) = (  27.9717241  32.2989648  12.0000000  )
       192           C   tau( 192) = (  27.9717241   0.0000000  18.0000000  )
       193           C   tau( 193) = (  27.9717241   2.6915535  18.0000000  )
       194           C   tau( 194) = (  30.3027011   4.0373706  18.0000000  )
       195           C   tau( 195) = (  30.3027011   6.9980552  18.0000000  )
       196           C   tau( 196) = (  30.3027011   1.3457364  12.0000000  )
       197           C   tau( 197) = (  30.3027011   4.0373706  12.0000000  )
       198           C   tau( 198) = (  32.6336781   5.3831070  12.0000000  )
       199           C   tau( 199) = (  32.6336781   8.0747412  12.0000000  )
       200           C   tau( 200) = (  27.9717241   8.0747412  18.0000000  )
       201           C   tau( 201) = (  27.9717241  10.7662947  18.0000000  )
       202           C   tau( 202) = (  30.3027011  12.1121118  18.0000000  )
       203           C   tau( 203) = (  30.3027011  15.0727964  18.0000000  )
       204           C   tau( 204) = (  30.3027011   9.4204776  12.0000000  )
       205           C   tau( 205) = (  30.3027011  12.1121118  12.0000000  )
       206           C   tau( 206) = (  32.6336781  13.4578482  12.0000000  )
       207           C   tau( 207) = (  32.6336781  16.1494824  12.0000000  )
       208           C   tau( 208) = (  27.9717241  16.1494824  18.0000000  )
       209           C   tau( 209) = (  27.9717241  18.8410359  18.0000000  )
       210           C   tau( 210) = (  30.3027011  20.1868530  18.0000000  )
       211           C   tau( 211) = (  30.3027011  23.1475376  18.0000000  )
       212           C   tau( 212) = (  30.3027011  17.4952188  12.0000000  )
       213           C   tau( 213) = (  30.3027011  20.1868530  12.0000000  )
       214           C   tau( 214) = (  32.6336781  21.5325894  12.0000000  )
       215           C   tau( 215) = (  32.6336781  24.2242236  12.0000000  )
       216           C   tau( 216) = (  27.9717241  24.2242236  18.0000000  )
       217           C   tau( 217) = (  27.9717241  26.9157771  18.0000000  )
       218           C   tau( 218) = (  30.3027011  28.2615942  18.0000000  )
       219           C   tau( 219) = (  30.3027011  31.2222788  18.0000000  )
       220           C   tau( 220) = (  30.3027011  25.5699600  12.0000000  )
       221           C   tau( 221) = (  30.3027011  28.2615942  12.0000000  )
       222           C   tau( 222) = (  32.6336781  29.6073306  12.0000000  )
       223           C   tau( 223) = (  32.6336781  32.2989648  12.0000000  )
       224           C   tau( 224) = (  32.6336781   0.0000000  18.0000000  )
       225           C   tau( 225) = (  32.6336781   2.6915535  18.0000000  )
       226           C   tau( 226) = (  34.9646551   4.0373706  18.0000000  )
       227           C   tau( 227) = (  34.9646551   6.9980552  18.0000000  )
       228           C   tau( 228) = (  34.9646551   1.3457364  12.0000000  )
       229           C   tau( 229) = (  34.9646551   4.0373706  12.0000000  )
       230           C   tau( 230) = (  37.2956321   5.3831070  12.0000000  )
       231           C   tau( 231) = (  37.2956321   8.0747412  12.0000000  )
       232           C   tau( 232) = (  32.6336781   8.0747412  18.0000000  )
       233           C   tau( 233) = (  32.6336781  10.7662947  18.0000000  )
       234           C   tau( 234) = (  34.9646551  12.1121118  18.0000000  )
       235           C   tau( 235) = (  34.9646551  15.0727964  18.0000000  )
       236           C   tau( 236) = (  34.9646551   9.4204776  12.0000000  )
       237           C   tau( 237) = (  34.9646551  12.1121118  12.0000000  )
       238           C   tau( 238) = (  37.2956321  13.4578482  12.0000000  )
       239           C   tau( 239) = (  37.2956321  16.1494824  12.0000000  )
       240           C   tau( 240) = (  32.6336781  16.1494824  18.0000000  )
       241           C   tau( 241) = (  32.6336781  18.8410359  18.0000000  )
       242           C   tau( 242) = (  34.9646551  20.1868530  18.0000000  )
       243           C   tau( 243) = (  34.9646551  23.1475376  18.0000000  )
       244           C   tau( 244) = (  34.9646551  17.4952188  12.0000000  )
       245           C   tau( 245) = (  34.9646551  20.1868530  12.0000000  )
       246           C   tau( 246) = (  37.2956321  21.5325894  12.0000000  )
       247           C   tau( 247) = (  37.2956321  24.2242236  12.0000000  )
       248           C   tau( 248) = (  32.6336781  24.2242236  18.0000000  )
       249           C   tau( 249) = (  32.6336781  26.9157771  18.0000000  )
       250           C   tau( 250) = (  34.9646551  28.2615942  18.0000000  )
       251           C   tau( 251) = (  34.9646551  31.2222788  18.0000000  )
       252           C   tau( 252) = (  34.9646551  28.2615942  12.0000000  )
       253           C   tau( 253) = (  37.2956321  29.6073306  12.0000000  )
       254           C   tau( 254) = (  37.2956321  32.2989648  12.0000000  )

   Crystallographic axes

     site n.     atom                  positions (cryst. coord.)
         1           C   tau(   1) = (  0.0000000  0.0000000  0.6000000  )
         2           C   tau(   2) = (  0.0000000  0.0833325  0.6000000  )
         3           C   tau(   3) = (  0.0625000  0.1250000  0.6000000  )
         4           C   tau(   4) = (  0.0625000  0.0416650  0.4000000  )
         5           C   tau(   5) = (  0.0625000  0.1250000  0.4000000  )
         6           C   tau(   6) = (  0.1250000  0.1666650  0.4000000  )
         7           C   tau(   7) = (  0.1250000  0.2500000  0.4000000  )
         8           C   tau(   8) = (  0.0000000  0.2500000  0.6000000  )
         9           C   tau(   9) = (  0.0000000  0.3333325  0.6000000  )
        10           C   tau(  10) = (  0.0625000  0.3750000  0.6000000  )
        11           C   tau(  11) = (  0.0625000  0.4666650  0.6000000  )
        12           C   tau(  12) = (  0.0625000  0.2916650  0.4000000  )
        13           C   tau(  13) = (  0.0625000  0.3750000  0.4000000  )
        14           C   tau(  14) = (  0.1250000  0.4166650  0.4000000  )
        15           C   tau(  15) = (  0.1250000  0.5000000  0.4000000  )
        16           C   tau(  16) = (  0.0000000  0.5000000  0.6000000  )
        17           C   tau(  17) = (  0.0000000  0.5833325  0.6000000  )
        18           C   tau(  18) = (  0.0625000  0.6250000  0.6000000  )
        19           C   tau(  19) = (  0.0625000  0.7166650  0.6000000  )
        20           C   tau(  20) = (  0.0625000  0.5416650  0.4000000  )
        21           C   tau(  21) = (  0.0625000  0.6250000  0.4000000  )
        22           C   tau(  22) = (  0.1250000  0.6666650  0.4000000  )
        23           C   tau(  23) = (  0.1250000  0.7500000  0.4000000  )
        24           C   tau(  24) = (  0.0000000  0.7500000  0.6000000  )
        25           C   tau(  25) = (  0.0000000  0.8333325  0.6000000  )
        26           C   tau(  26) = (  0.0625000  0.8750000  0.6000000  )
        27           C   tau(  27) = (  0.0625000  0.9666650  0.6000000  )
        28           C   tau(  28) = (  0.0625000  0.7916650  0.4000000  )
        29           C   tau(  29) = (  0.0625000  0.8750000  0.4000000  )
        30           C   tau(  30) = (  0.1250000  0.9166650  0.4000000  )
        31           C   tau(  31) = (  0.1250000  1.0000000  0.4000000  )
        32           C   tau(  32) = (  0.1250000  0.0000000  0.6000000  )
        33           C   tau(  33) = (  0.1250000  0.0833325  0.6000000  )
        34           C   tau(  34) = (  0.1875000  0.1250000  0.6000000  )
        35           C   tau(  35) = (  0.1875000  0.2166650  0.6000000  )
        36           C   tau(  36) = (  0.1875000  0.0416650  0.4000000  )
        37           C   tau(  37) = (  0.1875000  0.1250000  0.4000000  )
        38           C   tau(  38) = (  0.2500000  0.1666650  0.4000000  )
        39           C   tau(  39) = (  0.2500000  0.2500000  0.4000000  )
        40           C   tau(  40) = (  0.1250000  0.2500000  0.6000000  )
        41           C   tau(  41) = (  0.1250000  0.3333325  0.6000000  )
        42           C   tau(  42) = (  0.1875000  0.3750000  0.6000000  )
        43           C   tau(  43) = (  0.1875000  0.4666650  0.6000000  )
        44           C   tau(  44) = (  0.1875000  0.2916650  0.4000000  )
        45           C   tau(  45) = (  0.1875000  0.3750000  0.4000000  )
        46           C   tau(  46) = (  0.2500000  0.4166650  0.4000000  )
        47           C   tau(  47) = (  0.2500000  0.5000000  0.4000000  )
        48           C   tau(  48) = (  0.1250000  0.5000000  0.6000000  )
        49           C   tau(  49) = (  0.1250000  0.5833325  0.6000000  )
        50           C   tau(  50) = (  0.1875000  0.6250000  0.6000000  )
        51           C   tau(  51) = (  0.1875000  0.7166650  0.6000000  )
        52           C   tau(  52) = (  0.1875000  0.5416650  0.4000000  )
        53           C   tau(  53) = (  0.1875000  0.6250000  0.4000000  )
        54           C   tau(  54) = (  0.2500000  0.6666650  0.4000000  )
        55           C   tau(  55) = (  0.2500000  0.7500000  0.4000000  )
        56           C   tau(  56) = (  0.1250000  0.7500000  0.6000000  )
        57           C   tau(  57) = (  0.1250000  0.8333325  0.6000000  )
        58           C   tau(  58) = (  0.1875000  0.8750000  0.6000000  )
        59           C   tau(  59) = (  0.1875000  0.9666650  0.6000000  )
        60           C   tau(  60) = (  0.1875000  0.7916650  0.4000000  )
        61           C   tau(  61) = (  0.1875000  0.8750000  0.4000000  )
        62           C   tau(  62) = (  0.2500000  0.9166650  0.4000000  )
        63           C   tau(  63) = (  0.2500000  1.0000000  0.4000000  )
        64           C   tau(  64) = (  0.2500000  0.0000000  0.6000000  )
        65           C   tau(  65) = (  0.2500000  0.0833325  0.6000000  )
        66           C   tau(  66) = (  0.3125000  0.1250000  0.6000000  )
        67           C   tau(  67) = (  0.3125000  0.2166650  0.6000000  )
        68           C   tau(  68) = (  0.3125000  0.0416650  0.4000000  )
        69           C   tau(  69) = (  0.3125000  0.1250000  0.4000000  )
        70           C   tau(  70) = (  0.3750000  0.1666650  0.4000000  )
        71           C   tau(  71) = (  0.3750000  0.2500000  0.4000000  )
        72           C   tau(  72) = (  0.2500000  0.2500000  0.6000000  )
        73           C   tau(  73) = (  0.2500000  0.3333325  0.6000000  )
        74           C   tau(  74) = (  0.3125000  0.3750000  0.6000000  )
        75           C   tau(  75) = (  0.3125000  0.4666650  0.6000000  )
        76           C   tau(  76) = (  0.3125000  0.2916650  0.4000000  )
        77           C   tau(  77) = (  0.3125000  0.3750000  0.4000000  )
        78           C   tau(  78) = (  0.3750000  0.4166650  0.4000000  )
        79           C   tau(  79) = (  0.3750000  0.5000000  0.4000000  )
        80           C   tau(  80) = (  0.2500000  0.5000000  0.6000000  )
        81           C   tau(  81) = (  0.2500000  0.5833325  0.6000000  )
        82           C   tau(  82) = (  0.3125000  0.6250000  0.6000000  )
        83           C   tau(  83) = (  0.3125000  0.7166650  0.6000000  )
        84           C   tau(  84) = (  0.3125000  0.5416650  0.4000000  )
        85           C   tau(  85) = (  0.3125000  0.6250000  0.4000000  )
        86           C   tau(  86) = (  0.3750000  0.6666650  0.4000000  )
        87           C   tau(  87) = (  0.3750000  0.7500000  0.4000000  )
        88           C   tau(  88) = (  0.2500000  0.7500000  0.6000000  )
        89           C   tau(  89) = (  0.2500000  0.8333325  0.6000000  )
        90           C   tau(  90) = (  0.3125000  0.8750000  0.6000000  )
        91           C   tau(  91) = (  0.3125000  0.9666650  0.6000000  )
        92           C   tau(  92) = (  0.3125000  0.7916650  0.4000000  )
        93           C   tau(  93) = (  0.3125000  0.8750000  0.4000000  )
        94           C   tau(  94) = (  0.3750000  0.9166650  0.4000000  )
        95           C   tau(  95) = (  0.3750000  1.0000000  0.4000000  )
        96           C   tau(  96) = (  0.3750000  0.0000000  0.6000000  )
        97           C   tau(  97) = (  0.3750000  0.0833325  0.6000000  )
        98           C   tau(  98) = (  0.4375000  0.1250000  0.6000000  )
        99           C   tau(  99) = (  0.4375000  0.2166650  0.6000000  )
       100           C   tau( 100) = (  0.4375000  0.0416650  0.4000000  )
       101           C   tau( 101) = (  0.4375000  0.1250000  0.4000000  )
       102           C   tau( 102) = (  0.5000000  0.1666650  0.4000000  )
       103           C   tau( 103) = (  0.5000000  0.2500000  0.4000000  )
       104           C   tau( 104) = (  0.3750000  0.2500000  0.6000000  )
       105           C   tau( 105) = (  0.3750000  0.3333325  0.6000000  )
       106           C   tau( 106) = (  0.4375000  0.3750000  0.6000000  )
       107           C   tau( 107) = (  0.4375000  0.4666650  0.6000000  )
       108           C   tau( 108) = (  0.4375000  0.2916650  0.4000000  )
       109           C   tau( 109) = (  0.4375000  0.3750000  0.4000000  )
       110           C   tau( 110) = (  0.5000000  0.4166650  0.4000000  )
       111           C   tau( 111) = (  0.5000000  0.5000000  0.4000000  )
       112           C   tau( 112) = (  0.3750000  0.5000000  0.6000000  )
       113           C   tau( 113) = (  0.3750000  0.5833325  0.6000000  )
       114           C   tau( 114) = (  0.4375000  0.6250000  0.6000000  )
       115           C   tau( 115) = (  0.4375000  0.7166650  0.6000000  )
       116           C   tau( 116) = (  0.4375000  0.5416650  0.4000000  )
       117           C   tau( 117) = (  0.4375000  0.6250000  0.4000000  )
       118           C   tau( 118) = (  0.5000000  0.6666650  0.4000000  )
       119           C   tau( 119) = (  0.5000000  0.7500000  0.4000000  )
       120           C   tau( 120) = (  0.3750000  0.7500000  0.6000000  )
       121           C   tau( 121) = (  0.3750000  0.8333325  0.6000000  )
       122           C   tau( 122) = (  0.4375000  0.8750000  0.6000000  )
       123           C   tau( 123) = (  0.4375000  0.9666650  0.6000000  )
       124           C   tau( 124) = (  0.4375000  0.7916650  0.4000000  )
       125           C   tau( 125) = (  0.4375000  0.8750000  0.4000000  )
       126           C   tau( 126) = (  0.5000000  0.9166650  0.4000000  )
       127           C   tau( 127) = (  0.5000000  1.0000000  0.4000000  )
       128           C   tau( 128) = (  0.5000000  0.0000000  0.6000000  )
       129           C   tau( 129) = (  0.5000000  0.0833325  0.6000000  )
       130           C   tau( 130) = (  0.5625000  0.1250000  0.6000000  )
       131           C   tau( 131) = (  0.5625000  0.2166650  0.6000000  )
       132           C   tau( 132) = (  0.5625000  0.0416650  0.4000000  )
       133           C   tau( 133) = (  0.5625000  0.1250000  0.4000000  )
       134           C   tau( 134) = (  0.6250000  0.1666650  0.4000000  )
       135           C   tau( 135) = (  0.6250000  0.2500000  0.4000000  )
       136           C   tau( 136) = (  0.5000000  0.2500000  0.6000000  )
       137           C   tau( 137) = (  0.5000000  0.3333325  0.6000000  )
       138           C   tau( 138) = (  0.5625000  0.3750000  0.6000000  )
       139           C   tau( 139) = (  0.5625000  0.4666650  0.6000000  )
       140           C   tau( 140) = (  0.5625000  0.2916650  0.4000000  )
       141           C   tau( 141) = (  0.5625000  0.3750000  0.4000000  )
       142           C   tau( 142) = (  0.6250000  0.4166650  0.4000000  )
       143           C   tau( 143) = (  0.6250000  0.5000000  0.4000000  )
       144           C   tau( 144) = (  0.5000000  0.5000000  0.6000000  )
       145           C   tau( 145) = (  0.5000000  0.5833325  0.6000000  )
       146           C   tau( 146) = (  0.5625000  0.6250000  0.6000000  )
       147           C   tau( 147) = (  0.5625000  0.7166650  0.6000000  )
       148           C   tau( 148) = (  0.5625000  0.5416650  0.4000000  )
       149           C   tau( 149) = (  0.5625000  0.6250000  0.4000000  )
       150           C   tau( 150) = (  0.6250000  0.6666650  0.4000000  )
       151           C   tau( 151) = (  0.6250000  0.7500000  0.4000000  )
       152           C   tau( 152) = (  0.5000000  0.7500000  0.6000000  )
       153           C   tau( 153) = (  0.5000000  0.8333325  0.6000000  )
       154           C   tau( 154) = (  0.5625000  0.8750000  0.6000000  )
       155           C   tau( 155) = (  0.5625000  0.9666650  0.6000000  )
       156           C   tau( 156) = (  0.5625000  0.7916650  0.4000000  )
       157           C   tau( 157) = (  0.5625000  0.8750000  0.4000000  )
       158           C   tau( 158) = (  0.6250000  0.9166650  0.4000000  )
       159           C   tau( 159) = (  0.6250000  1.0000000  0.4000000  )
       160           C   tau( 160) = (  0.6250000  0.0000000  0.6000000  )
       161           C   tau( 161) = (  0.6250000  0.0833325  0.6000000  )
       162           C   tau( 162) = (  0.6875000  0.1250000  0.6000000  )
       163           C   tau( 163) = (  0.6875000  0.2166650  0.6000000  )
       164           C   tau( 164) = (  0.6875000  0.0416650  0.4000000  )
       165           C   tau( 165) = (  0.6875000  0.1250000  0.4000000  )
       166           C   tau( 166) = (  0.7500000  0.1666650  0.4000000  )
       167           C   tau( 167) = (  0.7500000  0.2500000  0.4000000  )
       168           C   tau( 168) = (  0.6250000  0.2500000  0.6000000  )
       169           C   tau( 169) = (  0.6250000  0.3333325  0.6000000  )
       170           C   tau( 170) = (  0.6875000  0.3750000  0.6000000  )
       171           C   tau( 171) = (  0.6875000  0.4666650  0.6000000  )
       172           C   tau( 172) = (  0.6875000  0.2916650  0.4000000  )
       173           C   tau( 173) = (  0.6875000  0.3750000  0.4000000  )
       174           C   tau( 174) = (  0.7500000  0.4166650  0.4000000  )
       175           C   tau( 175) = (  0.7500000  0.5000000  0.4000000  )
       176           C   tau( 176) = (  0.6250000  0.5000000  0.6000000  )
       177           C   tau( 177) = (  0.6250000  0.5833325  0.6000000  )
       178           C   tau( 178) = (  0.6875000  0.6250000  0.6000000  )
       179           C   tau( 179) = (  0.6875000  0.7166650  0.6000000  )
       180           C   tau( 180) = (  0.6875000  0.5416650  0.4000000  )
       181           C   tau( 181) = (  0.6875000  0.6250000  0.4000000  )
       182           C   tau( 182) = (  0.7500000  0.6666650  0.4000000  )
       183           C   tau( 183) = (  0.7500000  0.7500000  0.4000000  )
       184           C   tau( 184) = (  0.6250000  0.7500000  0.6000000  )
       185           C   tau( 185) = (  0.6250000  0.8333325  0.6000000  )
       186           C   tau( 186) = (  0.6875000  0.8750000  0.6000000  )
       187           C   tau( 187) = (  0.6875000  0.9666650  0.6000000  )
       188           C   tau( 188) = (  0.6875000  0.7916650  0.4000000  )
       189           C   tau( 189) = (  0.6875000  0.8750000  0.4000000  )
       190           C   tau( 190) = (  0.7500000  0.9166650  0.4000000  )
       191           C   tau( 191) = (  0.7500000  1.0000000  0.4000000  )
       192           C   tau( 192) = (  0.7500000  0.0000000  0.6000000  )
       193           C   tau( 193) = (  0.7500000  0.0833325  0.6000000  )
       194           C   tau( 194) = (  0.8125000  0.1250000  0.6000000  )
       195           C   tau( 195) = (  0.8125000  0.2166650  0.6000000  )
       196           C   tau( 196) = (  0.8125000  0.0416650  0.4000000  )
       197           C   tau( 197) = (  0.8125000  0.1250000  0.4000000  )
       198           C   tau( 198) = (  0.8750000  0.1666650  0.4000000  )
       199           C   tau( 199) = (  0.8750000  0.2500000  0.4000000  )
       200           C   tau( 200) = (  0.7500000  0.2500000  0.6000000  )
       201           C   tau( 201) = (  0.7500000  0.3333325  0.6000000  )
       202           C   tau( 202) = (  0.8125000  0.3750000  0.6000000  )
       203           C   tau( 203) = (  0.8125000  0.4666650  0.6000000  )
       204           C   tau( 204) = (  0.8125000  0.2916650  0.4000000  )
       205           C   tau( 205) = (  0.8125000  0.3750000  0.4000000  )
       206           C   tau( 206) = (  0.8750000  0.4166650  0.4000000  )
       207           C   tau( 207) = (  0.8750000  0.5000000  0.4000000  )
       208           C   tau( 208) = (  0.7500000  0.5000000  0.6000000  )
       209           C   tau( 209) = (  0.7500000  0.5833325  0.6000000  )
       210           C   tau( 210) = (  0.8125000  0.6250000  0.6000000  )
       211           C   tau( 211) = (  0.8125000  0.7166650  0.6000000  )
       212           C   tau( 212) = (  0.8125000  0.5416650  0.4000000  )
       213           C   tau( 213) = (  0.8125000  0.6250000  0.4000000  )
       214           C   tau( 214) = (  0.8750000  0.6666650  0.4000000  )
       215           C   tau( 215) = (  0.8750000  0.7500000  0.4000000  )
       216           C   tau( 216) = (  0.7500000  0.7500000  0.6000000  )
       217           C   tau( 217) = (  0.7500000  0.8333325  0.6000000  )
       218           C   tau( 218) = (  0.8125000  0.8750000  0.6000000  )
       219           C   tau( 219) = (  0.8125000  0.9666650  0.6000000  )
       220           C   tau( 220) = (  0.8125000  0.7916650  0.4000000  )
       221           C   tau( 221) = (  0.8125000  0.8750000  0.4000000  )
       222           C   tau( 222) = (  0.8750000  0.9166650  0.4000000  )
       223           C   tau( 223) = (  0.8750000  1.0000000  0.4000000  )
       224           C   tau( 224) = (  0.8750000  0.0000000  0.6000000  )
       225           C   tau( 225) = (  0.8750000  0.0833325  0.6000000  )
       226           C   tau( 226) = (  0.9375000  0.1250000  0.6000000  )
       227           C   tau( 227) = (  0.9375000  0.2166650  0.6000000  )
       228           C   tau( 228) = (  0.9375000  0.0416650  0.4000000  )
       229           C   tau( 229) = (  0.9375000  0.1250000  0.4000000  )
       230           C   tau( 230) = (  1.0000000  0.1666650  0.4000000  )
       231           C   tau( 231) = (  1.0000000  0.2500000  0.4000000  )
       232           C   tau( 232) = (  0.8750000  0.2500000  0.6000000  )
       233           C   tau( 233) = (  0.8750000  0.3333325  0.6000000  )
       234           C   tau( 234) = (  0.9375000  0.3750000  0.6000000  )
       235           C   tau( 235) = (  0.9375000  0.4666650  0.6000000  )
       236           C   tau( 236) = (  0.9375000  0.2916650  0.4000000  )
       237           C   tau( 237) = (  0.9375000  0.3750000  0.4000000  )
       238           C   tau( 238) = (  1.0000000  0.4166650  0.4000000  )
       239           C   tau( 239) = (  1.0000000  0.5000000  0.4000000  )
       240           C   tau( 240) = (  0.8750000  0.5000000  0.6000000  )
       241           C   tau( 241) = (  0.8750000  0.5833325  0.6000000  )
       242           C   tau( 242) = (  0.9375000  0.6250000  0.6000000  )
       243           C   tau( 243) = (  0.9375000  0.7166650  0.6000000  )
       244           C   tau( 244) = (  0.9375000  0.5416650  0.4000000  )
       245           C   tau( 245) = (  0.9375000  0.6250000  0.4000000  )
       246           C   tau( 246) = (  1.0000000  0.6666650  0.4000000  )
       247           C   tau( 247) = (  1.0000000  0.7500000  0.4000000  )
       248           C   tau( 248) = (  0.8750000  0.7500000  0.6000000  )
       249           C   tau( 249) = (  0.8750000  0.8333325  0.6000000  )
       250           C   tau( 250) = (  0.9375000  0.8750000  0.6000000  )
       251           C   tau( 251) = (  0.9375000  0.9666650  0.6000000  )
       252           C   tau( 252) = (  0.9375000  0.8750000  0.4000000  )
       253           C   tau( 253) = (  1.0000000  0.9166650  0.4000000  )
       254           C   tau( 254) = (  1.0000000  1.0000000  0.4000000  )

     number of k points=     1  Fermi-Dirac smearing, width (Ry)=  0.0020
                       cart. coord. in units 2pi/alat
        k(    1) = (   0.0000000   0.0000000   0.0000000), wk =   1.0000000

                       cryst. coord.
        k(    1) = (   0.0000000   0.0000000   0.0000000), wk =   1.0000000

     Dense  grid:  1746787 G-vectors     FFT dimensions: ( 216, 192, 180)

     Dynamical RAM for                 wfc:       8.52 MB

     Dynamical RAM for     wfc (w. buffer):      25.55 MB

     Dynamical RAM for           str. fact:       0.11 MB

     Dynamical RAM for           local pot:       0.00 MB

     Dynamical RAM for          nlocal pot:      28.18 MB

     Dynamical RAM for                qrad:       0.41 MB

     Dynamical RAM for          rho,v,vnew:       2.56 MB

     Dynamical RAM for               rhoin:       0.85 MB

     Dynamical RAM for            rho*nmix:       3.55 MB

     Dynamical RAM for           G-vectors:       0.47 MB

     Dynamical RAM for          h,s,v(r/c):       0.15 MB

     Dynamical RAM for          <psi|beta>:       9.52 MB

     Dynamical RAM for                 psi:      17.03 MB

     Dynamical RAM for                hpsi:      17.03 MB

     Dynamical RAM for      wfcinit/wfcrot:      25.67 MB

     Estimated static dynamical RAM per process >      60.27 MB

     Estimated max dynamical RAM per process >     107.56 MB

     Estimated total dynamical RAM >      25.21 GB
     Generating pointlists ...
     new r_m :   1.0591 (alat units)  1.0591 (a.u.) for type    1

     Initial potential from superposition of free atoms

     starting charge    1015.9887, renormalised to    1016.0000

     negative rho (up, down):  9.422E-04 1.284E-13


     %%%%%%%%%%%%%%%%%%%%%%%%%%%%%%%%%%%%%%%%%%%%%%%%%%%%%%%%%%%%%%%%%%%%%%%%
     %                                                                      %
     % You are using vdW-DF, which was implemented by the Thonhauser group. %
     % Please cite the following two papers that made this development      %
     % possible and the two reviews that describe the various versions:     %
     %                                                                      %
     %   T. Thonhauser et al., PRL 115, 136402 (2015).                      %
     %   T. Thonhauser et al., PRB 76, 125112 (2007).                       %
     %   K. Berland et al., Rep. Prog. Phys. 78, 066501 (2015).             %
     %   D.C. Langreth et al., J. Phys.: Condens. Matter 21, 084203 (2009). %
     %                                                                      %
     %                                                                      %
     % If you are calculating the stress with vdW-DF, please also cite:     %
     %                                                                      %
     %   R. Sabatini et al., J. Phys.: Condens. Matter 24, 424209 (2012).   %
     %                                                                      %
     %%%%%%%%%%%%%%%%%%%%%%%%%%%%%%%%%%%%%%%%%%%%%%%%%%%%%%%%%%%%%%%%%%%%%%%%


     Carrying out vdW-DF run using the following parameters:
     Nqs    =  20  Npoints =  1024  r_max =  100.000
     q_mesh =  0.00001000  0.04494208  0.09755937  0.15916263
               0.23128650  0.31572767  0.41458969  0.53033537
               0.66584808  0.82450364  1.01025438  1.22772762
               1.48234092  1.78043706  2.12944203  2.53805004
               3.01644009  3.57652955  4.23227104  5.00000000


     -----------------------------------------------
     Non-local corr. energy    =       6.87924146 Ry
     -----------------------------------------------

     Starting wfcs are random

     total cpu time spent up to now is        6.3 secs

     per-process dynamical memory:   146.5 Mb

     Self-consistent Calculation

     iteration #  1     ecut=    80.00 Ry     beta= 0.50
     Davidson diagonalization with overlap

---- Real-time Memory Report at c_bands before calling an iterative solver
           241 MiB given to the printing process from OS
           143 MiB allocation reported by mallinfo(arena+hblkhd)
        165925 MiB available memory on the node where the printing process lives
------------------
     ethr =  1.00E-02,  avg # of iterations = 17.0

     negative rho (up, down):  2.814E-05 4.436E-05


     -----------------------------------------------
     Non-local corr. energy    =      10.38177179 Ry
     -----------------------------------------------


     total cpu time spent up to now is       50.1 secs

     total energy              =   -3037.45988892 Ry
     estimated scf accuracy    <      60.98289410 Ry

     total magnetization       =   124.84 Bohr mag/cell
     absolute magnetization    =   126.32 Bohr mag/cell

     iteration #  2     ecut=    80.00 Ry     beta= 0.50
     Davidson diagonalization with overlap

---- Real-time Memory Report at c_bands before calling an iterative solver
           300 MiB given to the printing process from OS
           178 MiB allocation reported by mallinfo(arena+hblkhd)
        165493 MiB available memory on the node where the printing process lives
------------------
     ethr =  6.00E-03,  avg # of iterations =  1.0


     -----------------------------------------------
     Non-local corr. energy    =      12.79933770 Ry
     -----------------------------------------------


     total cpu time spent up to now is       57.4 secs

     total energy              =   -3073.82679714 Ry
     estimated scf accuracy    <      20.98272739 Ry

     total magnetization       =    58.43 Bohr mag/cell
     absolute magnetization    =    60.33 Bohr mag/cell

     iteration #  3     ecut=    80.00 Ry     beta= 0.50
     Davidson diagonalization with overlap

---- Real-time Memory Report at c_bands before calling an iterative solver
           301 MiB given to the printing process from OS
           178 MiB allocation reported by mallinfo(arena+hblkhd)
        165494 MiB available memory on the node where the printing process lives
------------------
     ethr =  2.07E-03,  avg # of iterations =  2.0


     -----------------------------------------------
     Non-local corr. energy    =      12.91990968 Ry
     -----------------------------------------------


     total cpu time spent up to now is       65.8 secs

     total energy              =   -3080.52171543 Ry
     estimated scf accuracy    <       1.46309797 Ry

     total magnetization       =     5.77 Bohr mag/cell
     absolute magnetization    =    10.99 Bohr mag/cell

     iteration #  4     ecut=    80.00 Ry     beta= 0.50
     Davidson diagonalization with overlap

---- Real-time Memory Report at c_bands before calling an iterative solver
           301 MiB given to the printing process from OS
           178 MiB allocation reported by mallinfo(arena+hblkhd)
        165496 MiB available memory on the node where the printing process lives
------------------
     ethr =  1.44E-04,  avg # of iterations = 14.5


     -----------------------------------------------
     Non-local corr. energy    =      12.97127594 Ry
     -----------------------------------------------


     total cpu time spent up to now is       81.7 secs

     total energy              =   -3080.85674713 Ry
     estimated scf accuracy    <       1.00017071 Ry

     total magnetization       =     4.92 Bohr mag/cell
     absolute magnetization    =     8.96 Bohr mag/cell

     iteration #  5     ecut=    80.00 Ry     beta= 0.50
     Davidson diagonalization with overlap

---- Real-time Memory Report at c_bands before calling an iterative solver
           301 MiB given to the printing process from OS
           178 MiB allocation reported by mallinfo(arena+hblkhd)
        165484 MiB available memory on the node where the printing process lives
------------------
     ethr =  9.84E-05,  avg # of iterations =  7.5


     -----------------------------------------------
     Non-local corr. energy    =      13.10480116 Ry
     -----------------------------------------------


     total cpu time spent up to now is       90.9 secs

     total energy              =   -3080.80174876 Ry
     estimated scf accuracy    <       0.63883471 Ry

     total magnetization       =     3.76 Bohr mag/cell
     absolute magnetization    =     6.60 Bohr mag/cell

     iteration #  6     ecut=    80.00 Ry     beta= 0.50
     Davidson diagonalization with overlap

---- Real-time Memory Report at c_bands before calling an iterative solver
           301 MiB given to the printing process from OS
           178 MiB allocation reported by mallinfo(arena+hblkhd)
        165492 MiB available memory on the node where the printing process lives
------------------
     ethr =  6.29E-05,  avg # of iterations =  4.5


     -----------------------------------------------
     Non-local corr. energy    =      13.12614620 Ry
     -----------------------------------------------


     total cpu time spent up to now is      100.2 secs

     total energy              =   -3080.82403302 Ry
     estimated scf accuracy    <       0.53284951 Ry

     total magnetization       =     1.87 Bohr mag/cell
     absolute magnetization    =     3.84 Bohr mag/cell

     iteration #  7     ecut=    80.00 Ry     beta= 0.50
     Davidson diagonalization with overlap

---- Real-time Memory Report at c_bands before calling an iterative solver
           301 MiB given to the printing process from OS
           178 MiB allocation reported by mallinfo(arena+hblkhd)
        165493 MiB available memory on the node where the printing process lives
------------------
     ethr =  5.24E-05,  avg # of iterations =  4.0


     -----------------------------------------------
     Non-local corr. energy    =      13.17005807 Ry
     -----------------------------------------------


     total cpu time spent up to now is      108.6 secs

     total energy              =   -3080.75028259 Ry
     estimated scf accuracy    <       0.36522038 Ry

     total magnetization       =     1.99 Bohr mag/cell
     absolute magnetization    =     4.34 Bohr mag/cell

     iteration #  8     ecut=    80.00 Ry     beta= 0.50
     Davidson diagonalization with overlap

---- Real-time Memory Report at c_bands before calling an iterative solver
           301 MiB given to the printing process from OS
           178 MiB allocation reported by mallinfo(arena+hblkhd)
        165484 MiB available memory on the node where the printing process lives
------------------
     ethr =  3.59E-05,  avg # of iterations = 13.5


     -----------------------------------------------
     Non-local corr. energy    =      13.21872176 Ry
     -----------------------------------------------


     total cpu time spent up to now is      120.4 secs

     total energy              =   -3080.72136740 Ry
     estimated scf accuracy    <       0.35430491 Ry

     total magnetization       =     1.69 Bohr mag/cell
     absolute magnetization    =     4.30 Bohr mag/cell

     iteration #  9     ecut=    80.00 Ry     beta= 0.50
     Davidson diagonalization with overlap

---- Real-time Memory Report at c_bands before calling an iterative solver
           301 MiB given to the printing process from OS
           178 MiB allocation reported by mallinfo(arena+hblkhd)
        165482 MiB available memory on the node where the printing process lives
------------------
     ethr =  3.49E-05,  avg # of iterations = 10.0

     negative rho (up, down):  1.338E-04 1.504E-04


     -----------------------------------------------
     Non-local corr. energy    =      13.24594675 Ry
     -----------------------------------------------


     total cpu time spent up to now is      130.9 secs

     total energy              =   -3080.73314149 Ry
     estimated scf accuracy    <       0.29313166 Ry

     total magnetization       =     1.99 Bohr mag/cell
     absolute magnetization    =     4.64 Bohr mag/cell

     iteration # 10     ecut=    80.00 Ry     beta= 0.50
     Davidson diagonalization with overlap

---- Real-time Memory Report at c_bands before calling an iterative solver
           301 MiB given to the printing process from OS
           178 MiB allocation reported by mallinfo(arena+hblkhd)
        165490 MiB available memory on the node where the printing process lives
------------------
     c_bands:  5 eigenvalues not converged
     c_bands:  1 eigenvalues not converged
     ethr =  2.89E-05,  avg # of iterations = 20.0

     negative rho (up, down):  3.505E-02 3.234E-02


     -----------------------------------------------
     Non-local corr. energy    =      13.23185207 Ry
     -----------------------------------------------


     total cpu time spent up to now is      144.8 secs

     total energy              =   -3080.69989392 Ry
     estimated scf accuracy    <       0.15225821 Ry

     total magnetization       =     1.94 Bohr mag/cell
     absolute magnetization    =     3.96 Bohr mag/cell

     iteration # 11     ecut=    80.00 Ry     beta= 0.50
     Davidson diagonalization with overlap

---- Real-time Memory Report at c_bands before calling an iterative solver
           301 MiB given to the printing process from OS
           178 MiB allocation reported by mallinfo(arena+hblkhd)
        165492 MiB available memory on the node where the printing process lives
------------------
     c_bands:  5 eigenvalues not converged
     c_bands:  3 eigenvalues not converged
     ethr =  1.50E-05,  avg # of iterations = 30.0

     negative rho (up, down):  1.094E-01 1.071E-01


     -----------------------------------------------
     Non-local corr. energy    =      13.21146869 Ry
     -----------------------------------------------


     total cpu time spent up to now is      164.0 secs

     total energy              =   -3080.70192023 Ry
     estimated scf accuracy    <       0.15154623 Ry

     total magnetization       =     2.16 Bohr mag/cell
     absolute magnetization    =     3.93 Bohr mag/cell

     iteration # 12     ecut=    80.00 Ry     beta= 0.50
     Davidson diagonalization with overlap

---- Real-time Memory Report at c_bands before calling an iterative solver
           301 MiB given to the printing process from OS
           178 MiB allocation reported by mallinfo(arena+hblkhd)
        165492 MiB available memory on the node where the printing process lives
------------------
     c_bands:  4 eigenvalues not converged
     ethr =  1.49E-05,  avg # of iterations = 18.5

     negative rho (up, down):  1.812E-01 1.758E-01


     -----------------------------------------------
     Non-local corr. energy    =      13.19038756 Ry
     -----------------------------------------------


     total cpu time spent up to now is      176.1 secs

     total energy              =   -3080.71159483 Ry
     estimated scf accuracy    <       0.10473916 Ry

     total magnetization       =     2.15 Bohr mag/cell
     absolute magnetization    =     3.77 Bohr mag/cell

     iteration # 13     ecut=    80.00 Ry     beta= 0.50
     Davidson diagonalization with overlap

---- Real-time Memory Report at c_bands before calling an iterative solver
           301 MiB given to the printing process from OS
           178 MiB allocation reported by mallinfo(arena+hblkhd)
        165491 MiB available memory on the node where the printing process lives
------------------
     ethr =  1.03E-05,  avg # of iterations = 11.0


     -----------------------------------------------
     Non-local corr. energy    =      13.17644011 Ry
     -----------------------------------------------


     Magnetic moment per site  (integrated on atomic sphere of radius R)
     atom   1 (R=1.059)  charge=  1.5961  magn= -0.0057
     atom   2 (R=1.059)  charge=  1.5397  magn=  0.0029
     atom   3 (R=1.059)  charge=  1.4251  magn= -0.1127
     atom   4 (R=1.059)  charge=  1.5403  magn= -0.0018
     atom   5 (R=1.059)  charge=  1.5392  magn=  0.0008
     atom   6 (R=1.059)  charge=  1.5397  magn= -0.0005
     atom   7 (R=1.059)  charge=  1.5384  magn=  0.0011
     atom   8 (R=1.059)  charge=  1.4790  magn=  0.2429
     atom   9 (R=1.059)  charge=  1.5353  magn= -0.0005
     atom  10 (R=1.059)  charge=  1.4950  magn=  0.0142
     atom  11 (R=1.059)  charge=  1.5510  magn= -0.0036
     atom  12 (R=1.059)  charge=  1.5413  magn= -0.0006
     atom  13 (R=1.059)  charge=  1.5397  magn=  0.0012
     atom  14 (R=1.059)  charge=  1.5401  magn= -0.0007
     atom  15 (R=1.059)  charge=  1.5398  magn=  0.0016
     atom  16 (R=1.059)  charge=  1.5990  magn=  0.0022
     atom  17 (R=1.059)  charge=  1.5447  magn= -0.0012
     atom  18 (R=1.059)  charge=  1.4946  magn=  0.0015
     atom  19 (R=1.059)  charge=  1.5515  magn= -0.0001
     atom  20 (R=1.059)  charge=  1.5412  magn= -0.0007
     atom  21 (R=1.059)  charge=  1.5390  magn=  0.0110
     atom  22 (R=1.059)  charge=  1.5399  magn= -0.0041
     atom  23 (R=1.059)  charge=  1.5390  magn=  0.0117
     atom  24 (R=1.059)  charge=  1.5977  magn=  0.0010
     atom  25 (R=1.059)  charge=  1.5439  magn= -0.0003
     atom  26 (R=1.059)  charge=  1.4949  magn= -0.0004
     atom  27 (R=1.059)  charge=  1.5510  magn=  0.0048
     atom  28 (R=1.059)  charge=  1.5380  magn=  0.0045
     atom  29 (R=1.059)  charge=  1.5390  magn=  0.0077
     atom  30 (R=1.059)  charge=  1.5397  magn= -0.0018
     atom  31 (R=1.059)  charge=  1.5399  magn=  0.0017
     atom  32 (R=1.059)  charge=  1.5958  magn= -0.0064
     atom  33 (R=1.059)  charge=  1.5395  magn=  0.0043
     atom  34 (R=1.059)  charge=  1.4967  magn=  0.0078
     atom  35 (R=1.059)  charge=  1.5503  magn=  0.0011
     atom  36 (R=1.059)  charge=  1.5416  magn= -0.0003
     atom  37 (R=1.059)  charge=  1.5402  magn=  0.0008
     atom  38 (R=1.059)  charge=  1.5398  magn= -0.0005
     atom  39 (R=1.059)  charge=  1.5395  magn=  0.0013
     atom  40 (R=1.059)  charge=  1.4798  magn=  0.2438
     atom  41 (R=1.059)  charge=  1.5350  magn= -0.0003
     atom  42 (R=1.059)  charge=  1.4935  magn=  0.0141
     atom  43 (R=1.059)  charge=  1.5521  magn=  0.0000
     atom  44 (R=1.059)  charge=  1.5413  magn= -0.0001
     atom  45 (R=1.059)  charge=  1.5401  magn=  0.0010
     atom  46 (R=1.059)  charge=  1.5401  magn= -0.0010
     atom  47 (R=1.059)  charge=  1.5394  magn=  0.0014
     atom  48 (R=1.059)  charge=  1.5995  magn=  0.0018
     atom  49 (R=1.059)  charge=  1.5443  magn= -0.0008
     atom  50 (R=1.059)  charge=  1.4947  magn=  0.0017
     atom  51 (R=1.059)  charge=  1.5528  magn= -0.0010
     atom  52 (R=1.059)  charge=  1.5416  magn= -0.0011
     atom  53 (R=1.059)  charge=  1.5406  magn=  0.0019
     atom  54 (R=1.059)  charge=  1.5400  magn= -0.0018
     atom  55 (R=1.059)  charge=  1.5395  magn=  0.0022
     atom  56 (R=1.059)  charge=  1.5992  magn=  0.0005
     atom  57 (R=1.059)  charge=  1.5442  magn=  0.0004
     atom  58 (R=1.059)  charge=  1.4933  magn=  0.0003
     atom  59 (R=1.059)  charge=  1.5530  magn= -0.0010
     atom  60 (R=1.059)  charge=  1.5422  magn=  0.0012
     atom  61 (R=1.059)  charge=  1.5409  magn=  0.0022
     atom  62 (R=1.059)  charge=  1.5398  magn= -0.0014
     atom  63 (R=1.059)  charge=  1.5390  magn=  0.0022
     atom  64 (R=1.059)  charge=  1.5992  magn= -0.0007
     atom  65 (R=1.059)  charge=  1.5426  magn=  0.0008
     atom  66 (R=1.059)  charge=  1.4950  magn=  0.0028
     atom  67 (R=1.059)  charge=  1.5533  magn=  0.0004
     atom  68 (R=1.059)  charge=  1.5420  magn= -0.0004
     atom  69 (R=1.059)  charge=  1.5405  magn=  0.0009
     atom  70 (R=1.059)  charge=  1.5401  magn= -0.0001
     atom  71 (R=1.059)  charge=  1.5397  magn=  0.0009
     atom  72 (R=1.059)  charge=  1.5992  magn=  0.0148
     atom  73 (R=1.059)  charge=  1.5420  magn= -0.0056
     atom  74 (R=1.059)  charge=  1.4959  magn=  0.0033
     atom  75 (R=1.059)  charge=  1.5533  magn= -0.0019
     atom  76 (R=1.059)  charge=  1.5411  magn= -0.0003
     atom  77 (R=1.059)  charge=  1.5407  magn=  0.0008
     atom  78 (R=1.059)  charge=  1.5402  magn= -0.0005
     atom  79 (R=1.059)  charge=  1.5399  magn=  0.0010
     atom  80 (R=1.059)  charge=  1.5992  magn=  0.0015
     atom  81 (R=1.059)  charge=  1.5429  magn= -0.0009
     atom  82 (R=1.059)  charge=  1.4945  magn=  0.0019
     atom  83 (R=1.059)  charge=  1.5536  magn= -0.0007
     atom  84 (R=1.059)  charge=  1.5415  magn= -0.0009
     atom  85 (R=1.059)  charge=  1.5409  magn=  0.0009
     atom  86 (R=1.059)  charge=  1.5401  magn= -0.0004
     atom  87 (R=1.059)  charge=  1.5392  magn=  0.0011
     atom  88 (R=1.059)  charge=  1.5993  magn=  0.0001
     atom  89 (R=1.059)  charge=  1.5438  magn= -0.0003
     atom  90 (R=1.059)  charge=  1.4944  magn=  0.0014
     atom  91 (R=1.059)  charge=  1.5536  magn=  0.0001
     atom  92 (R=1.059)  charge=  1.5418  magn= -0.0002
     atom  93 (R=1.059)  charge=  1.5410  magn=  0.0009
     atom  94 (R=1.059)  charge=  1.5399  magn= -0.0004
     atom  95 (R=1.059)  charge=  1.5395  magn=  0.0012
     atom  96 (R=1.059)  charge=  1.5994  magn=  0.0001
     atom  97 (R=1.059)  charge=  1.5431  magn= -0.0012
     atom  98 (R=1.059)  charge=  1.4951  magn=  0.0011
     atom  99 (R=1.059)  charge=  1.5526  magn= -0.0000
     atom 100 (R=1.059)  charge=  1.5411  magn= -0.0007
     atom 101 (R=1.059)  charge=  1.5403  magn=  0.0016
     atom 102 (R=1.059)  charge=  1.5404  magn= -0.0000
     atom 103 (R=1.059)  charge=  1.5401  magn=  0.0008
     atom 104 (R=1.059)  charge=  1.5993  magn=  0.0017
     atom 105 (R=1.059)  charge=  1.5424  magn= -0.0027
     atom 106 (R=1.059)  charge=  1.4950  magn=  0.0014
     atom 107 (R=1.059)  charge=  1.5528  magn= -0.0016
     atom 108 (R=1.059)  charge=  1.5412  magn= -0.0007
     atom 109 (R=1.059)  charge=  1.5403  magn=  0.0012
     atom 110 (R=1.059)  charge=  1.5407  magn= -0.0003
     atom 111 (R=1.059)  charge=  1.5396  magn=  0.0008
     atom 112 (R=1.059)  charge=  1.5991  magn=  0.0010
     atom 113 (R=1.059)  charge=  1.5437  magn= -0.0016
     atom 114 (R=1.059)  charge=  1.4945  magn=  0.0008
     atom 115 (R=1.059)  charge=  1.5527  magn= -0.0006
     atom 116 (R=1.059)  charge=  1.5412  magn= -0.0011
     atom 117 (R=1.059)  charge=  1.5403  magn=  0.0011
     atom 118 (R=1.059)  charge=  1.5404  magn= -0.0002
     atom 119 (R=1.059)  charge=  1.5398  magn=  0.0011
     atom 120 (R=1.059)  charge=  1.5988  magn=  0.0005
     atom 121 (R=1.059)  charge=  1.5435  magn= -0.0008
     atom 122 (R=1.059)  charge=  1.4958  magn=  0.0001
     atom 123 (R=1.059)  charge=  1.5519  magn= -0.0001
     atom 124 (R=1.059)  charge=  1.5415  magn= -0.0009
     atom 125 (R=1.059)  charge=  1.5405  magn=  0.0013
     atom 126 (R=1.059)  charge=  1.5400  magn=  0.0000
     atom 127 (R=1.059)  charge=  1.5402  magn=  0.0009
     atom 128 (R=1.059)  charge=  1.5993  magn=  0.0011
     atom 129 (R=1.059)  charge=  1.5445  magn= -0.0007
     atom 130 (R=1.059)  charge=  1.4952  magn=  0.0006
     atom 131 (R=1.059)  charge=  1.5518  magn= -0.0008
     atom 132 (R=1.059)  charge=  1.5413  magn= -0.0005
     atom 133 (R=1.059)  charge=  1.5400  magn=  0.0011
     atom 134 (R=1.059)  charge=  1.5403  magn= -0.0004
     atom 135 (R=1.059)  charge=  1.5396  magn=  0.0011
     atom 136 (R=1.059)  charge=  1.5991  magn=  0.0012
     atom 137 (R=1.059)  charge=  1.5442  magn= -0.0010
     atom 138 (R=1.059)  charge=  1.4950  magn=  0.0009
     atom 139 (R=1.059)  charge=  1.5516  magn= -0.0018
     atom 140 (R=1.059)  charge=  1.5412  magn= -0.0005
     atom 141 (R=1.059)  charge=  1.5401  magn=  0.0010
     atom 142 (R=1.059)  charge=  1.5406  magn= -0.0006
     atom 143 (R=1.059)  charge=  1.5397  magn=  0.0011
     atom 144 (R=1.059)  charge=  1.5991  magn=  0.0013
     atom 145 (R=1.059)  charge=  1.5450  magn= -0.0013
     atom 146 (R=1.059)  charge=  1.4953  magn=  0.0006
     atom 147 (R=1.059)  charge=  1.5507  magn= -0.0008
     atom 148 (R=1.059)  charge=  1.5416  magn= -0.0011
     atom 149 (R=1.059)  charge=  1.5405  magn=  0.0010
     atom 150 (R=1.059)  charge=  1.5397  magn= -0.0013
     atom 151 (R=1.059)  charge=  1.5398  magn=  0.0021
     atom 152 (R=1.059)  charge=  1.5991  magn=  0.0009
     atom 153 (R=1.059)  charge=  1.5443  magn= -0.0005
     atom 154 (R=1.059)  charge=  1.4961  magn= -0.0003
     atom 155 (R=1.059)  charge=  1.5511  magn= -0.0006
     atom 156 (R=1.059)  charge=  1.5413  magn= -0.0006
     atom 157 (R=1.059)  charge=  1.5409  magn=  0.0010
     atom 158 (R=1.059)  charge=  1.5395  magn= -0.0007
     atom 159 (R=1.059)  charge=  1.5397  magn=  0.0019
     atom 160 (R=1.059)  charge=  1.5989  magn=  0.0005
     atom 161 (R=1.059)  charge=  1.5443  magn= -0.0004
     atom 162 (R=1.059)  charge=  1.4951  magn=  0.0020
     atom 163 (R=1.059)  charge=  1.5525  magn= -0.0008
     atom 164 (R=1.059)  charge=  1.5417  magn=  0.0001
     atom 165 (R=1.059)  charge=  1.5403  magn=  0.0007
     atom 166 (R=1.059)  charge=  1.5402  magn= -0.0006
     atom 167 (R=1.059)  charge=  1.5395  magn=  0.0009
     atom 168 (R=1.059)  charge=  1.5991  magn=  0.0007
     atom 169 (R=1.059)  charge=  1.5440  magn= -0.0007
     atom 170 (R=1.059)  charge=  1.4946  magn=  0.0023
     atom 171 (R=1.059)  charge=  1.5529  magn= -0.0020
     atom 172 (R=1.059)  charge=  1.5414  magn=  0.0000
     atom 173 (R=1.059)  charge=  1.5404  magn=  0.0009
     atom 174 (R=1.059)  charge=  1.5401  magn= -0.0008
     atom 175 (R=1.059)  charge=  1.5399  magn=  0.0016
     atom 176 (R=1.059)  charge=  1.5990  magn=  0.0009
     atom 177 (R=1.059)  charge=  1.5447  magn= -0.0010
     atom 178 (R=1.059)  charge=  1.4945  magn=  0.0014
     atom 179 (R=1.059)  charge=  1.5526  magn= -0.0009
     atom 180 (R=1.059)  charge=  1.5412  magn= -0.0008
     atom 181 (R=1.059)  charge=  1.5413  magn=  0.0016
     atom 182 (R=1.059)  charge=  1.5391  magn= -0.0037
     atom 183 (R=1.059)  charge=  1.5393  magn=  0.0114
     atom 184 (R=1.059)  charge=  1.5994  magn=  0.0005
     atom 185 (R=1.059)  charge=  1.5440  magn= -0.0002
     atom 186 (R=1.059)  charge=  1.4948  magn=  0.0009
     atom 187 (R=1.059)  charge=  1.5531  magn= -0.0004
     atom 188 (R=1.059)  charge=  1.5421  magn=  0.0013
     atom 189 (R=1.059)  charge=  1.5413  magn=  0.0020
     atom 190 (R=1.059)  charge=  1.5394  magn= -0.0017
     atom 191 (R=1.059)  charge=  1.5390  magn=  0.0017
     atom 192 (R=1.059)  charge=  1.5992  magn= -0.0004
     atom 193 (R=1.059)  charge=  1.5429  magn= -0.0008
     atom 194 (R=1.059)  charge=  1.4953  magn=  0.0025
     atom 195 (R=1.059)  charge=  1.5532  magn= -0.0002
     atom 196 (R=1.059)  charge=  1.5410  magn= -0.0010
     atom 197 (R=1.059)  charge=  1.5398  magn=  0.0008
     atom 198 (R=1.059)  charge=  1.5400  magn= -0.0000
     atom 199 (R=1.059)  charge=  1.5394  magn=  0.0009
     atom 200 (R=1.059)  charge=  1.5995  magn=  0.0012
     atom 201 (R=1.059)  charge=  1.5426  magn= -0.0024
     atom 202 (R=1.059)  charge=  1.4954  magn=  0.0032
     atom 203 (R=1.059)  charge=  1.5537  magn= -0.0019
     atom 204 (R=1.059)  charge=  1.5416  magn= -0.0002
     atom 205 (R=1.059)  charge=  1.5402  magn=  0.0008
     atom 206 (R=1.059)  charge=  1.5397  magn= -0.0005
     atom 207 (R=1.059)  charge=  1.5405  magn=  0.0022
     atom 208 (R=1.059)  charge=  1.5992  magn=  0.0007
     atom 209 (R=1.059)  charge=  1.5433  magn= -0.0012
     atom 210 (R=1.059)  charge=  1.4943  magn=  0.0018
     atom 211 (R=1.059)  charge=  1.5532  magn= -0.0005
     atom 212 (R=1.059)  charge=  1.5410  magn= -0.0002
     atom 213 (R=1.059)  charge=  1.5399  magn=  0.0103
     atom 214 (R=1.059)  charge=  1.5335  magn= -0.0025
     atom 215 (R=1.059)  charge=  1.4551  magn=  0.2025
     atom 216 (R=1.059)  charge=  1.5993  magn= -0.0002
     atom 217 (R=1.059)  charge=  1.5431  magn= -0.0005
     atom 218 (R=1.059)  charge=  1.4940  magn=  0.0016
     atom 219 (R=1.059)  charge=  1.5535  magn=  0.0001
     atom 220 (R=1.059)  charge=  1.5385  magn=  0.0056
     atom 221 (R=1.059)  charge=  1.5404  magn=  0.0069
     atom 222 (R=1.059)  charge=  1.5319  magn= -0.0033
     atom 223 (R=1.059)  charge=  1.5344  magn= -0.0014
     atom 224 (R=1.059)  charge=  1.5995  magn= -0.0000
     atom 225 (R=1.059)  charge=  1.5424  magn=  0.0003
     atom 226 (R=1.059)  charge=  1.4966  magn=  0.0066
     atom 227 (R=1.059)  charge=  1.5501  magn=  0.0010
     atom 228 (R=1.059)  charge=  1.5409  magn= -0.0005
     atom 229 (R=1.059)  charge=  1.5405  magn=  0.0007
     atom 230 (R=1.059)  charge=  1.5397  magn=  0.0001
     atom 231 (R=1.059)  charge=  1.5382  magn=  0.0012
     atom 232 (R=1.059)  charge=  1.5994  magn=  0.0152
     atom 233 (R=1.059)  charge=  1.5422  magn= -0.0058
     atom 234 (R=1.059)  charge=  1.4938  magn=  0.0131
     atom 235 (R=1.059)  charge=  1.5521  magn=  0.0011
     atom 236 (R=1.059)  charge=  1.5410  magn= -0.0005
     atom 237 (R=1.059)  charge=  1.5407  magn=  0.0012
     atom 238 (R=1.059)  charge=  1.5400  magn= -0.0004
     atom 239 (R=1.059)  charge=  1.5398  magn=  0.0024
     atom 240 (R=1.059)  charge=  1.5993  magn=  0.0018
     atom 241 (R=1.059)  charge=  1.5427  magn= -0.0009
     atom 242 (R=1.059)  charge=  1.4951  magn=  0.0009
     atom 243 (R=1.059)  charge=  1.5520  magn= -0.0003
     atom 244 (R=1.059)  charge=  1.5411  magn= -0.0027
     atom 245 (R=1.059)  charge=  1.5413  magn=  0.0115
     atom 246 (R=1.059)  charge=  1.5331  magn= -0.0028
     atom 247 (R=1.059)  charge=  1.4468  magn=  0.2102
     atom 248 (R=1.059)  charge=  1.5984  magn=  0.0003
     atom 249 (R=1.059)  charge=  1.5426  magn= -0.0007
     atom 250 (R=1.059)  charge=  1.4932  magn= -0.0005
     atom 251 (R=1.059)  charge=  1.5521  magn= -0.0001
     atom 252 (R=1.059)  charge=  1.3710  magn= -0.0160
     atom 253 (R=1.059)  charge=  1.5326  magn= -0.0034
     atom 254 (R=1.059)  charge=  1.5351  magn= -0.0014

     total cpu time spent up to now is      186.5 secs

     End of self-consistent calculation

 ------ SPIN UP ------------


          k = 0.0000 0.0000 0.0000 (218367 PWs)   bands (ev):

   -19.7188 -19.4784 -19.4619 -19.4371 -19.3995 -19.3364 -19.2128 -19.1949
   -19.1448 -19.1247 -19.1239 -19.1053 -19.0615 -18.9753 -18.8648 -18.8602
   -18.8376 -18.7488 -18.6698 -18.6250 -18.5860 -18.4044 -18.4026 -18.3791
   -18.3675 -18.3266 -18.3220 -18.2466 -18.1094 -18.0965 -18.0726 -18.0571
   -18.0506 -17.9583 -17.9402 -17.8450 -17.8103 -17.8083 -17.6298 -17.5948
   -17.5653 -17.5180 -17.3343 -17.3148 -17.2946 -17.2094 -17.0746 -17.0653
   -17.0412 -17.0232 -17.0164 -17.0037 -16.9972 -16.9492 -16.8695 -16.7691
   -16.7387 -16.7233 -16.6623 -16.5522 -16.5318 -16.5021 -16.3776 -16.3498
   -16.3225 -16.2759 -16.1925 -16.1705 -16.1344 -16.1223 -16.0465 -16.0257
   -15.9506 -15.9436 -15.8819 -15.7738 -15.7397 -15.7094 -15.6874 -15.6342
   -15.5805 -15.4057 -15.3880 -15.3609 -15.3527 -15.3405 -15.3024 -15.2917
   -15.2501 -15.2317 -15.2212 -15.2181 -15.1817 -15.1577 -15.1324 -15.1004
   -15.0470 -14.9786 -14.9316 -14.9054 -14.8607 -14.7573 -14.6825 -14.5669
   -14.3949 -14.3667 -14.3588 -14.3456 -14.3097 -14.2171 -14.1856 -14.1701
   -14.1460 -14.1288 -14.0917 -14.0595 -14.0386 -14.0256 -13.8325 -13.7234
   -13.6791 -13.4923 -13.4606 -13.4239 -13.3539 -13.3293 -13.2792 -13.2626
   -13.2307 -13.1890 -13.1547 -13.1430 -13.0598 -13.0331 -12.8950 -12.8880
   -12.8118 -12.7693 -12.7248 -12.6835 -12.5867 -12.5333 -12.5188 -12.4875
   -12.4755 -12.4712 -12.4418 -12.3996 -12.3929 -12.3332 -12.3080 -12.2997
   -12.2890 -12.2406 -12.2299 -12.1595 -12.1425 -12.0502 -12.0313 -11.9754
   -11.9548 -11.9326 -11.7188 -11.5166 -11.5089 -11.4084 -11.3874 -11.1678
   -11.1542 -11.1250 -11.0876 -10.9201 -10.7953 -10.7882 -10.7281 -10.7200
   -10.6709 -10.6678 -10.6641 -10.6597 -10.6588 -10.6478 -10.6351 -10.6067
   -10.5822 -10.5347 -10.4998 -10.4457 -10.4084 -10.3756 -10.3417 -10.3284
   -10.3130 -10.2972 -10.2850 -10.2585 -10.2119 -10.1954 -10.1816 -10.1674
   -10.1143 -10.1086 -10.0754  -9.9582  -9.9543  -9.9187  -9.9033  -9.8303
    -9.7866  -9.6991  -9.3952  -9.3925  -9.3504  -9.2358  -9.2280  -9.1883
    -9.1345  -9.1246  -9.0986  -9.0781  -9.0437  -9.0213  -9.0175  -9.0151
    -8.9153  -8.8660  -8.8060  -8.7433  -8.7074  -8.6903  -8.6741  -8.6682
    -8.6572  -8.6369  -8.5142  -8.4767  -8.4725  -8.4396  -8.4342  -8.3881
    -8.3594  -8.3026  -8.2812  -8.1826  -8.1561  -8.1093  -8.1005  -8.0829
    -8.0409  -7.9649  -7.9155  -7.8832  -7.8566  -7.8542  -7.8216  -7.7738
    -7.7611  -7.6852  -7.6791  -7.6731  -7.6640  -7.6483  -7.6429  -7.6240
    -7.6208  -7.6043  -7.5680  -7.5636  -7.5596  -7.5528  -7.5505  -7.5484
    -7.5437  -7.5314  -7.5277  -7.5094  -7.5028  -7.4371  -7.4250  -7.4226
    -7.3539  -7.3459  -7.2970  -7.2764  -7.2762  -7.2703  -7.2254  -7.1911
    -7.1772  -7.1259  -7.0912  -7.0514  -7.0460  -7.0345  -7.0231  -6.9511
    -6.9461  -6.9327  -6.8956  -6.8380  -6.8313  -6.8161  -6.8104  -6.7915
    -6.7632  -6.7551  -6.7514  -6.7450  -6.7002  -6.6977  -6.6783  -6.6739
    -6.6681  -6.6297  -6.6267  -6.6178  -6.5876  -6.5635  -6.5594  -6.5578
    -6.5432  -6.5220  -6.5026  -6.4922  -6.4797  -6.4602  -6.4532  -6.4490
    -6.4239  -6.4199  -6.3676  -6.3561  -6.3522  -6.3411  -6.3174  -6.3064
    -6.3023  -6.2802  -6.2466  -6.2238  -6.1852  -6.1614  -6.1200  -6.1193
    -6.1009  -6.0295  -6.0040  -5.9989  -5.9711  -5.9149  -5.9062  -5.8609
    -5.8523  -5.8477  -5.8340  -5.8142  -5.8009  -5.7627  -5.7580  -5.7371
    -5.6823  -5.6369  -5.6309  -5.5851  -5.5693  -5.5620  -5.5464  -5.5117
    -5.5019  -5.4071  -5.4050  -5.3720  -5.3618  -5.3594  -5.3444  -5.3142
    -5.2985  -5.2835  -5.2705  -5.2603  -5.2271  -5.2233  -5.2149  -5.2046
    -5.1962  -5.1439  -5.1391  -5.1139  -5.0992  -5.0730  -5.0461  -5.0279
    -5.0270  -4.9780  -4.9577  -4.8927  -4.8618  -4.8339  -4.7854  -4.7689
    -4.7311  -4.7231  -4.6797  -4.6731  -4.6513  -4.5786  -4.5669  -4.5381
    -4.5351  -4.5149  -4.5076  -4.4720  -4.4586  -4.4530  -4.4072  -4.3448
    -4.3395  -4.3336  -4.3232  -4.2428  -4.2393  -4.2320  -4.2270  -4.1399
    -4.1306  -4.1133  -4.0865  -4.0436  -4.0299  -4.0109  -3.9626  -3.9370
    -3.9354  -3.9289  -3.9272  -3.9256  -3.9041  -3.9011  -3.8429  -3.8293
    -3.8124  -3.7594  -3.7434  -3.7072  -3.6459  -3.6267  -3.5778  -3.5365
    -3.5206  -3.3405  -3.3348  -3.3310  -3.3095  -3.3042  -3.2950  -3.2815
    -3.2653  -3.2540  -3.1963  -3.1772  -3.1472  -3.1028  -3.0784  -3.0336
    -2.9787  -2.9693  -2.9564  -2.8829  -2.8132  -2.7754  -2.7561  -2.7152
    -2.6597  -2.6336  -2.5537  -2.4958  -2.4121  -2.3979  -2.3845  -2.3814
    -2.3437  -2.3064  -2.2925  -2.2789  -2.2656  -2.2089  -2.1325  -2.1165
    -2.1035  -2.0927  -2.0420  -2.0215  -1.9944  -1.9467  -1.7867  -1.7244
    -1.6551  -1.5583  -1.5176  -1.5092  -1.2479  -1.0889  -0.9662  -0.9399
    -0.8064  -0.7371  -0.5043  -0.2145  -0.1700  -0.0537   0.0212   0.0865
     0.2245   0.2980   0.6607   0.7172   0.8841   0.9721   0.9768   1.1626
     1.1661   1.1997   1.2533   1.4033   1.4353   1.4766   1.4810   1.5070
     1.5313   1.5652   1.5902   1.6075   1.6212   1.6817   1.7790   1.8446
     1.8624   1.9036   1.9450   2.0490   2.2227   2.2590   2.2971   2.3192
     2.3786   2.3820   2.3967   2.4353   2.4964   2.5430   2.5890   2.5925
     2.6459   2.6650   2.6860   2.8121   2.8577   2.9013   3.0216   3.0234
     3.0399   3.0968   3.2075   3.2439   3.3044   3.3570   3.3744   3.4037
     3.4207   3.5023   3.5236   3.5739   3.5973   3.6017   3.6718   3.6948
     3.7357   3.9016   4.0228   4.0259   4.0363   4.0379   4.0437   4.0517
     4.0687   4.0736   4.0761   4.0857   4.0987   4.1440   4.1572   4.1798
     4.2414   4.3489   4.4256   4.4693   4.5484   4.5581   4.5649   4.5932
     4.6029   4.6592   4.6733   4.6856   4.7183   4.7202   4.8078   4.8125
     4.8551   4.9013   4.9525   5.1501   5.1659   5.1708

     occupation numbers 
     1.0000   1.0000   1.0000   1.0000   1.0000   1.0000   1.0000   1.0000
     1.0000   1.0000   1.0000   1.0000   1.0000   1.0000   1.0000   1.0000
     1.0000   1.0000   1.0000   1.0000   1.0000   1.0000   1.0000   1.0000
     1.0000   1.0000   1.0000   1.0000   1.0000   1.0000   1.0000   1.0000
     1.0000   1.0000   1.0000   1.0000   1.0000   1.0000   1.0000   1.0000
     1.0000   1.0000   1.0000   1.0000   1.0000   1.0000   1.0000   1.0000
     1.0000   1.0000   1.0000   1.0000   1.0000   1.0000   1.0000   1.0000
[...]
     atom   36 type  1   force =    -0.00380054   -0.00564145   -0.01268057
     atom   37 type  1   force =    -0.00043810   -0.00193193   -0.01302169
     atom   38 type  1   force =     0.00027923   -0.00055963   -0.01056042
     atom   39 type  1   force =     0.00117568   -0.00255074   -0.01053462
     atom   40 type  1   force =     0.01077902    0.00319027    0.00645211
     atom   41 type  1   force =     0.00419482    0.01167647    0.00652131
     atom   42 type  1   force =     0.00639036    0.00450687    0.00581683
     atom   43 type  1   force =     0.00018473   -0.00205630    0.00559101
     atom   44 type  1   force =     0.00050206   -0.00146486   -0.01187667
     atom   45 type  1   force =     0.00045529    0.00073809   -0.01032023
     atom   46 type  1   force =    -0.00039637    0.00050667   -0.00925911
     atom   47 type  1   force =    -0.00027910   -0.00110362   -0.00953650
     atom   48 type  1   force =    -0.00231130    0.00097141    0.00553803
     atom   49 type  1   force =    -0.00159803    0.00924460    0.00507046
     atom   50 type  1   force =    -0.00113701    0.00252107    0.00530420
     atom   51 type  1   force =    -0.00366385   -0.00412696    0.00483707
     atom   52 type  1   force =    -0.00047024    0.00020616   -0.00952701
     atom   53 type  1   force =    -0.00259832    0.00328217   -0.00919975
     atom   54 type  1   force =    -0.00151753    0.00268166   -0.00922497
     atom   55 type  1   force =    -0.00153970   -0.00086139   -0.00989161
     atom   56 type  1   force =    -0.00598373    0.00036945    0.00283324
     atom   57 type  1   force =    -0.00489373    0.00648566    0.00048138
     atom   58 type  1   force =    -0.00400667   -0.00040107    0.00284124
     atom   59 type  1   force =    -0.00130383   -0.01114707    0.00244779
     atom   60 type  1   force =    -0.00566364    0.00374601   -0.01009379
     atom   61 type  1   force =    -0.00882466    0.00495535   -0.01028177
     atom   62 type  1   force =    -0.00499656    0.00370772   -0.01002693
     atom   63 type  1   force =    -0.00373691   -0.00335191   -0.01080567
     atom   64 type  1   force =     0.00060977   -0.00267445    0.00379185
     atom   65 type  1   force =     0.00630144    0.00377755    0.00430595
     atom   66 type  1   force =     0.00297820   -0.00034017    0.00471343
     atom   67 type  1   force =     0.00413720   -0.00592149    0.00497150
     atom   68 type  1   force =    -0.00203366   -0.00154770   -0.00971365
     atom   69 type  1   force =    -0.00055983    0.00132359   -0.00908166
     atom   70 type  1   force =     0.00030447   -0.00058966   -0.00828366
     atom   71 type  1   force =    -0.00002449   -0.00147531   -0.00854501
     atom   72 type  1   force =     0.00450462    0.00137225    0.00549603
     atom   73 type  1   force =     0.00281194    0.00673227    0.00552912
     atom   74 type  1   force =     0.00155166   -0.00112002    0.00546506
     atom   75 type  1   force =     0.00142226   -0.00357602    0.00564763
     atom   76 type  1   force =     0.00007601   -0.00186505   -0.00905835
     atom   77 type  1   force =     0.00015470   -0.00061091   -0.00872901
     atom   78 type  1   force =     0.00044962   -0.00084055   -0.00851653
     atom   79 type  1   force =     0.00057486   -0.00080469   -0.00917044
     atom   80 type  1   force =    -0.00038780    0.00081434    0.00566614
     atom   81 type  1   force =    -0.00033312    0.00803639    0.00565760
     atom   82 type  1   force =    -0.00075613    0.00070681    0.00581976
     atom   83 type  1   force =     0.00097833   -0.00516410    0.00558401
     atom   84 type  1   force =    -0.00083730   -0.00081411   -0.00929867
     atom   85 type  1   force =    -0.00049105    0.00186636   -0.00899840
     atom   86 type  1   force =     0.00070491    0.00221052   -0.00896957
     atom   87 type  1   force =     0.00012217   -0.00080152   -0.00938109
     atom   88 type  1   force =    -0.00275193   -0.00091296    0.00531782
     atom   89 type  1   force =    -0.00268182    0.00768745    0.00479784
     atom   90 type  1   force =     0.00012575    0.00031583    0.00518375
     atom   91 type  1   force =     0.00128333   -0.00569104    0.00456574
     atom   92 type  1   force =    -0.00044852   -0.00064906   -0.00963585
     atom   93 type  1   force =    -0.00149769    0.00316360   -0.00938706
     atom   94 type  1   force =     0.00011936    0.00217179   -0.00908638
     atom   95 type  1   force =     0.00081482   -0.00127810   -0.00926216
     atom   96 type  1   force =     0.00235187   -0.00063923    0.00482869
     atom   97 type  1   force =     0.00065373    0.00631389    0.00474133
     atom   98 type  1   force =     0.00024216    0.00121511    0.00478454
     atom   99 type  1   force =     0.00200862   -0.00506890    0.00499136
     atom  100 type  1   force =     0.00010506    0.00061348   -0.00864431
     atom  101 type  1   force =     0.00029449   -0.00045373   -0.00801555
     atom  102 type  1   force =     0.00098494   -0.00156496   -0.00788393
     atom  103 type  1   force =     0.00082960   -0.00120306   -0.00804629
     atom  104 type  1   force =     0.00169816   -0.00002811    0.00509797
     atom  105 type  1   force =     0.00282817    0.00465008    0.00538811
     atom  106 type  1   force =    -0.00037660   -0.00084343    0.00553103
     atom  107 type  1   force =     0.00149469   -0.00582963    0.00565420
     atom  108 type  1   force =    -0.00006541   -0.00079067   -0.00810548
     atom  109 type  1   force =    -0.00017981   -0.00113162   -0.00805491
     atom  110 type  1   force =     0.00048923   -0.00048901   -0.00825398
     atom  111 type  1   force =    -0.00019925   -0.00022706   -0.00893438
     atom  112 type  1   force =     0.00007062   -0.00126288    0.00572711
     atom  113 type  1   force =    -0.00011650    0.00740161    0.00579546
     atom  114 type  1   force =    -0.00055475    0.00216667    0.00573608
     atom  115 type  1   force =     0.00099353   -0.00491072    0.00556778
     atom  116 type  1   force =     0.00093681    0.00031022   -0.00905343
     atom  117 type  1   force =     0.00013592    0.00066192   -0.00881794
     atom  118 type  1   force =     0.00004553    0.00123717   -0.00876752
     atom  119 type  1   force =     0.00094394   -0.00012004   -0.00899821
     atom  120 type  1   force =     0.00016403   -0.00079728    0.00552838
     atom  121 type  1   force =    -0.00130888    0.00596170    0.00546957
     atom  122 type  1   force =     0.00020847    0.00249304    0.00530920
     atom  123 type  1   force =     0.00195239   -0.00343976    0.00499998
     atom  124 type  1   force =    -0.00032889    0.00004120   -0.00912937
     atom  125 type  1   force =     0.00029708    0.00225947   -0.00882623
     atom  126 type  1   force =     0.00079752    0.00177296   -0.00864074
     atom  127 type  1   force =     0.00137885   -0.00034068   -0.00869465
     atom  128 type  1   force =     0.00265624   -0.00271320    0.00482603
     atom  129 type  1   force =     0.00189480    0.00533048    0.00470429
     atom  130 type  1   force =     0.00164947    0.00176714    0.00459193
     atom  131 type  1   force =     0.00127299   -0.00527640    0.00498861
     atom  132 type  1   force =     0.00338147   -0.00028183   -0.00831529
     atom  133 type  1   force =     0.00226138   -0.00054963   -0.00784565
     atom  134 type  1   force =     0.00170303   -0.00140005   -0.00767327
     atom  135 type  1   force =     0.00117620   -0.00266015   -0.00786766
     atom  136 type  1   force =     0.00201812   -0.00242870    0.00519131
     atom  137 type  1   force =     0.00142363    0.00484542    0.00546330
     atom  138 type  1   force =     0.00081114    0.00063342    0.00562312
     atom  139 type  1   force =     0.00091201   -0.00603668    0.00582139
     atom  140 type  1   force =     0.00143249   -0.00135658   -0.00786577
     atom  141 type  1   force =     0.00075858   -0.00144167   -0.00785725
     atom  142 type  1   force =     0.00069022   -0.00074663   -0.00799057
     atom  143 type  1   force =     0.00127915   -0.00066296   -0.00866469
     atom  144 type  1   force =     0.00183770   -0.00358638    0.00572930
     atom  145 type  1   force =     0.00013290    0.00638773    0.00573963
     atom  146 type  1   force =     0.00132696    0.00475196    0.00574104
     atom  147 type  1   force =     0.00126826   -0.00342338    0.00554923
     atom  148 type  1   force =     0.00026058   -0.00055469   -0.00884130
     atom  149 type  1   force =     0.00149244    0.00206531   -0.00864355
     atom  150 type  1   force =     0.00016644    0.00249036   -0.00842152
     atom  151 type  1   force =     0.00050057   -0.00070569   -0.00856751
     atom  152 type  1   force =     0.00401598   -0.00264898    0.00552647
     atom  153 type  1   force =     0.00225796    0.00531756    0.00533846
     atom  154 type  1   force =     0.00281327    0.00337184    0.00497125
     atom  155 type  1   force =     0.00286297   -0.00313508    0.00455073
     atom  156 type  1   force =     0.00138689    0.00010150   -0.00865557
     atom  157 type  1   force =     0.00299750    0.00321960   -0.00843632
     atom  158 type  1   force =     0.00518899    0.00423661   -0.00826408
     atom  159 type  1   force =     0.00447319   -0.00243316   -0.00843591
     atom  160 type  1   force =     0.00063970   -0.00233261    0.00377683
     atom  161 type  1   force =     0.00267983    0.00414742    0.00403471
     atom  162 type  1   force =     0.00273549   -0.00062261    0.00385954
     atom  163 type  1   force =     0.00049211   -0.00623815    0.00480336
     atom  164 type  1   force =     0.00665194   -0.00434063   -0.00833459
     atom  165 type  1   force =     0.00355593   -0.00209101   -0.00776596
     atom  166 type  1   force =     0.00313985   -0.00468674   -0.00792820
     atom  167 type  1   force =     0.00100625   -0.00415114   -0.00817783
     atom  168 type  1   force =     0.00076634   -0.00268758    0.00510475
     atom  169 type  1   force =     0.00154517    0.00468039    0.00545942
     atom  170 type  1   force =     0.00090027   -0.00112933    0.00567013
     atom  171 type  1   force =     0.00008544   -0.00561711    0.00592637
     atom  172 type  1   force =     0.00078732   -0.00260662   -0.00782189
     atom  173 type  1   force =     0.00085700   -0.00121737   -0.00771863
     atom  174 type  1   force =     0.00079810   -0.00187575   -0.00799117
     atom  175 type  1   force =     0.00002819   -0.00089296   -0.00861109
     atom  176 type  1   force =     0.00022441   -0.00282236    0.00588270
     atom  177 type  1   force =     0.00291138    0.00664934    0.00578080
     atom  178 type  1   force =     0.00278429    0.00289601    0.00584163
     atom  179 type  1   force =     0.00285535   -0.00326427    0.00544301
     atom  180 type  1   force =    -0.00023004   -0.00093562   -0.00860862
     atom  181 type  1   force =     0.00139596    0.00280940   -0.00830243
     atom  182 type  1   force =     0.00050467    0.00252521   -0.00831679
     atom  183 type  1   force =     0.00176617    0.00212426   -0.00892803
     atom  184 type  1   force =     0.00029086   -0.00104282    0.00538311
     atom  185 type  1   force =     0.00485109    0.00702968    0.00475694
     atom  186 type  1   force =     0.00533457    0.00161521    0.00329307
     atom  187 type  1   force =     0.00404267   -0.00549393    0.00252539
     atom  188 type  1   force =     0.00265950    0.00439434   -0.00845774
     atom  189 type  1   force =     0.00704961    0.00755949   -0.00816854
     atom  190 type  1   force =     0.01694345    0.00526512   -0.00851595
     atom  191 type  1   force =     0.01283365   -0.00644800   -0.00878095
     atom  192 type  1   force =     0.00422157   -0.00249921    0.00049311
     atom  193 type  1   force =     0.00270695    0.00264264    0.00220373
     atom  194 type  1   force =    -0.00077185   -0.00495391    0.00209651
     atom  195 type  1   force =    -0.00270883   -0.00855561    0.00432797
     atom  196 type  1   force =     0.01215577   -0.01539128   -0.00935314
     atom  197 type  1   force =     0.00394324   -0.00914305   -0.00873465
     atom  198 type  1   force =    -0.00157912   -0.00844406   -0.01020614
     atom  199 type  1   force =    -0.00092873   -0.00534961   -0.01014162
     atom  200 type  1   force =    -0.00168088   -0.00194014    0.00497474
     atom  201 type  1   force =    -0.00197753    0.00432675    0.00548308
     atom  202 type  1   force =    -0.00089944   -0.00151645    0.00560486
     atom  203 type  1   force =    -0.00011043   -0.00340259    0.00584032
     atom  204 type  1   force =     0.00038093   -0.00308246   -0.00863367
     atom  205 type  1   force =     0.00060877   -0.00079030   -0.00816368
     atom  206 type  1   force =    -0.00110682   -0.00118704   -0.00874504
     atom  207 type  1   force =     0.00054128   -0.00039194   -0.00893863
     atom  208 type  1   force =    -0.00046813    0.00046828    0.00604694
     atom  209 type  1   force =     0.00164651    0.00907136    0.00597014
     atom  210 type  1   force =     0.00240963    0.00378866    0.00561524
     atom  211 type  1   force =     0.00470559   -0.00032821    0.00388128
     atom  212 type  1   force =     0.00109030   -0.00019315   -0.00859014
     atom  213 type  1   force =    -0.00097719    0.00217001   -0.00837666
     atom  214 type  1   force =     0.01029862    0.00401269   -0.00934525
     atom  215 type  1   force =     0.02775441    0.03615585   -0.01050152
     atom  216 type  1   force =     0.00345481    0.00315096    0.00450383
     atom  217 type  1   force =     0.00649533    0.00984581    0.00198057
     atom  218 type  1   force =     0.00773282    0.00176053   -0.00448502
     atom  219 type  1   force =     0.00583104   -0.00967101   -0.00410903
     atom  220 type  1   force =     0.01735469    0.02936148   -0.00987968
     atom  221 type  1   force =     0.04047667    0.01367268   -0.00938504
     atom  222 type  1   force =     0.07850411   -0.03893312   -0.01018947
     atom  223 type  1   force =     0.01788329   -0.03552798   -0.01064539
     atom  224 type  1   force =     0.00061609   -0.01000313   -0.00676698
     atom  225 type  1   force =    -0.00540661   -0.00209157   -0.00064645
     atom  226 type  1   force =    -0.01430765   -0.00580328    0.00177018
     atom  227 type  1   force =    -0.00780392   -0.00576677    0.00492397
     atom  228 type  1   force =    -0.00310938   -0.03505855   -0.01247975
     atom  229 type  1   force =    -0.00318370   -0.01466103   -0.01258598
     atom  230 type  1   force =    -0.00357980   -0.00769932   -0.01583489
     atom  231 type  1   force =    -0.00402794   -0.00428181   -0.01484980
     atom  232 type  1   force =    -0.00526414   -0.00128509    0.00507019
     atom  233 type  1   force =    -0.00395981    0.00640363    0.00571172
     atom  234 type  1   force =    -0.00818834    0.00440726    0.00605989
     atom  235 type  1   force =    -0.00058333   -0.00113240    0.00561557
     atom  236 type  1   force =    -0.00167411   -0.00404759   -0.01140292
     atom  237 type  1   force =    -0.00151196    0.00013706   -0.00990152
     atom  238 type  1   force =     0.00017048    0.00138249   -0.01016417
     atom  239 type  1   force =    -0.00071572    0.00142277   -0.00951925
     atom  240 type  1   force =    -0.00048158    0.00267382    0.00574413
     atom  241 type  1   force =    -0.00022978    0.01132730    0.00534015
     atom  242 type  1   force =    -0.00185763    0.00714470    0.00356043
     atom  243 type  1   force =     0.00160951    0.00402151   -0.00165180
     atom  244 type  1   force =     0.00189929    0.00304940   -0.00905345
     atom  245 type  1   force =     0.00462311    0.01050989   -0.00902300
     atom  246 type  1   force =    -0.00494823    0.01921572   -0.00971047
     atom  247 type  1   force =    -0.02709295    0.03897326   -0.01017735
     atom  248 type  1   force =     0.00413794    0.00739935   -0.00128297
     atom  249 type  1   force =     0.00595049    0.01225829   -0.01049874
     atom  250 type  1   force =    -0.00312894    0.00093448   -0.01923061
     atom  251 type  1   force =    -0.00443611   -0.01775703   -0.01251248
     atom  252 type  1   force =     0.00242243   -0.02878129   -0.01134009
     atom  253 type  1   force =    -0.07696741   -0.04553618   -0.01224944
     atom  254 type  1   force =    -0.02016246   -0.03665240   -0.01377895

     Total force =     2.056031     Total SCF correction =     0.243882
     SCF correction compared to forces is large: reduce conv_thr to get better values

     Writing all to output data dir ./calc.save/

     init_run     :      6.15s CPU      6.24s WALL (       1 calls)
     electrons    :    178.90s CPU    180.39s WALL (       1 calls)
     forces       :      3.01s CPU      3.04s WALL (       1 calls)

     Called by init_run:
     wfcinit      :      3.10s CPU      3.15s WALL (       1 calls)
     wfcinit:wfcr :      2.96s CPU      3.01s WALL (       2 calls)
     potinit      :      1.15s CPU      1.17s WALL (       1 calls)
     hinit0       :      1.28s CPU      1.29s WALL (       1 calls)

     Called by electrons:
     c_bands      :    163.07s CPU    164.30s WALL (      13 calls)
     sum_band     :     10.62s CPU     10.72s WALL (      13 calls)
     v_of_rho     :      5.91s CPU      5.95s WALL (      14 calls)
     v_h          :      0.03s CPU      0.04s WALL (      14 calls)
     v_xc         :      6.25s CPU      6.29s WALL (      15 calls)
     mix_rho      :      0.12s CPU      0.12s WALL (      13 calls)
     vdW_kernel   :      0.49s CPU      0.49s WALL (       1 calls)

     Called by c_bands:
     init_us_2    :      0.50s CPU      0.51s WALL (      56 calls)
     init_us_2:cp :      0.50s CPU      0.51s WALL (      56 calls)
     regterg      :    161.27s CPU    162.50s WALL (      27 calls)

     Called by sum_band:
     sum_band:wei :      0.01s CPU      0.01s WALL (      13 calls)
     sum_band:loo :     10.49s CPU     10.59s WALL (      13 calls)
     sum_band:buf :      0.07s CPU      0.07s WALL (      26 calls)
     sum_band:ini :      0.23s CPU      0.23s WALL (      26 calls)

     Called by *egterg:
     rdiaghg      :     36.97s CPU     37.11s WALL (     334 calls)
     regterg:over :     12.28s CPU     12.32s WALL (     307 calls)
     regterg:upda :      9.90s CPU      9.93s WALL (     307 calls)
     regterg:last :     13.97s CPU     14.03s WALL (      72 calls)
     rdiaghg:chol :      0.67s CPU      0.68s WALL (     334 calls)
     rdiaghg:inve :      0.04s CPU      0.04s WALL (     334 calls)
     rdiaghg:para :      2.24s CPU      2.27s WALL (     668 calls)
     h_psi        :     87.31s CPU     88.29s WALL (     336 calls)
     g_psi        :      0.21s CPU      0.21s WALL (     307 calls)

     Called by h_psi:
     h_psi:calbec :     13.88s CPU     14.17s WALL (     336 calls)
     vloc_psi     :     60.86s CPU     61.51s WALL (     336 calls)
     add_vuspsi   :     12.37s CPU     12.41s WALL (     336 calls)

     General routines
     calbec       :     15.08s CPU     15.40s WALL (     344 calls)
     fft          :      3.56s CPU      3.59s WALL (    1180 calls)
     ffts         :      0.06s CPU      0.06s WALL (      26 calls)
     fftw         :     67.25s CPU     67.96s WALL (   57306 calls)

     Parallel routines
     fft_scatt_xy :      4.01s CPU      4.05s WALL (   58512 calls)
     fft_scatt_yz :     42.02s CPU     42.50s WALL (   58512 calls)

     PWSCF        :   3m13.27s CPU   3m29.67s WALL


   This run was terminated on:  16:36:58   6Apr2023            

=------------------------------------------------------------------------------=
   JOB DONE.
=------------------------------------------------------------------------------=
