
.Version 9.6.2 of ABINIT 
.(MPI version, prepared for a x86_64_linux_gnu10.3 computer) 

.Copyright (C) 1998-2021 ABINIT group . 
 ABINIT comes with ABSOLUTELY NO WARRANTY.
 It is free software, and you are welcome to redistribute it
 under certain conditions (GNU General Public License,
 see ~abinit/COPYING or http://www.gnu.org/copyleft/gpl.txt).

 ABINIT is a project of the Universite Catholique de Louvain,
 Corning Inc. and other collaborators, see ~abinit/doc/developers/contributors.txt .
 Please read https://docs.abinit.org/theory/acknowledgments for suggested
 acknowledgments of the ABINIT effort.
 For more information, see https://www.abinit.org .

.Starting date : Wed 14 Dec 2022.
- ( at 17h45 )
  
- input  file    -> NiC2O4.in
- output file    -> NiC2O4.out
- root for input  files -> abi
- root for output files -> abo


 Symmetries : space group P1 (#  1); Bravais aP (primitive triclinic)
================================================================================
 Values of the parameters that define the memory need of the present run
     intxc =       0    ionmov =       0      iscf =       7    lmnmax =       6
     lnmax =       6     mgfft =     160  mpssoang =       3    mqgrid =    6750
     natom =      14  nloc_mem =       1    nspden =       2   nspinor =       1
    nsppol =       2      nsym =       1    n1xccc =       0    ntypat =       3
    occopt =       3   xclevel =       2
-    mband =          65        mffmem =           1         mkmem =           1
       mpw =      160771          nfft =     3110400          nkpt =           4
================================================================================
P This job should need less than                    1843.297 Mbytes of memory.
  Rough estimation (10% accuracy) of disk space for files :
_ WF disk file :   1275.651 Mbytes ; DEN or POT disk file :     47.463 Mbytes.
================================================================================

--------------------------------------------------------------------------------
------------- Echo of variables that govern the present computation ------------
--------------------------------------------------------------------------------
-
- outvars: echo of selected default values                                      
-   iomode0 =  0 , fftalg0 =312 , wfoptalg0 =  0
-
- outvars: echo of global parameters not present in the input file              
-  max_nthreads =    0
-
 -outvars: echo values of preprocessed input variables --------
            acell      9.6000000000E-01  9.6000000000E-01  9.6000000000E-01 Bohr
              amu      5.86900000E+01  1.20110000E+01  1.59994000E+01
        autoparal           1
           diemac      1.00000000E+00
           diemix      4.00000000E-01
             ecut      2.50000000E+02 Hartree
           ecutsm      5.00000000E-01 Hartree
-          fftalg         312
              ixc     -263267
              kpt      2.50000000E-01  2.50000000E-01  2.50000000E-01
                      -2.50000000E-01  2.50000000E-01  2.50000000E-01
                       2.50000000E-01 -2.50000000E-01  2.50000000E-01
                      -2.50000000E-01 -2.50000000E-01  2.50000000E-01
         kptrlatt        2    0    0      0    2    0      0    0    2
          kptrlen      1.84561984E+01
P           mkmem           1
            natom          14
            nband          65
            ngfft         144     135     160
             nkpt           4
-        np_spkpt           8
           nspden           2
           nsppol           2
            nstep          60
             nsym           1
           ntypat           3
              occ      1.000000  1.000000  1.000000  1.000000  1.000000  1.000000
                       1.000000  1.000000  1.000000  1.000000  1.000000  1.000000
                       1.000000  1.000000  1.000000  1.000000  1.000000  1.000000
                       1.000000  1.000000  1.000000  1.000000  1.000000  1.000000
                       1.000000  1.000000  1.000000  1.000000  1.000000  1.000000
                       1.000000  1.000000  1.000000  1.000000  1.000000  1.000000
                       1.000000  1.000000  1.000000  1.000000  1.000000  1.000000
                       1.000000  1.000000  1.000000  1.000000  1.000000  1.000000
                       1.000000  1.000000  0.000000  0.000000  0.000000  0.000000
                       0.000000  0.000000  0.000000  0.000000  0.000000  0.000000
                       0.000000  0.000000  0.000000  0.000000  0.000000
                       1.000000  1.000000  1.000000  1.000000  1.000000  1.000000
                       1.000000  1.000000  1.000000  1.000000  1.000000  1.000000
                       1.000000  1.000000  1.000000  1.000000  1.000000  1.000000
                       1.000000  1.000000  1.000000  1.000000  1.000000  1.000000
                       1.000000  1.000000  1.000000  1.000000  1.000000  1.000000
                       1.000000  1.000000  1.000000  1.000000  1.000000  1.000000
                       1.000000  1.000000  1.000000  1.000000  1.000000  1.000000
                       1.000000  1.000000  1.000000  1.000000  1.000000  1.000000
                       1.000000  1.000000  0.000000  0.000000  0.000000  0.000000
                       0.000000  0.000000  0.000000  0.000000  0.000000  0.000000
                       0.000000  0.000000  0.000000  0.000000  0.000000
                       1.000000  1.000000  1.000000  1.000000  1.000000  1.000000
                       1.000000  1.000000  1.000000  1.000000  1.000000  1.000000
                       1.000000  1.000000  1.000000  1.000000  1.000000  1.000000
                       1.000000  1.000000  1.000000  1.000000  1.000000  1.000000
                       1.000000  1.000000  1.000000  1.000000  1.000000  1.000000
                       1.000000  1.000000  1.000000  1.000000  1.000000  1.000000
                       1.000000  1.000000  1.000000  1.000000  1.000000  1.000000
                       1.000000  1.000000  1.000000  1.000000  1.000000  1.000000
                       1.000000  1.000000  0.000000  0.000000  0.000000  0.000000
                       0.000000  0.000000  0.000000  0.000000  0.000000  0.000000
                       0.000000  0.000000  0.000000  0.000000  0.000000
                       1.000000  1.000000  1.000000  1.000000  1.000000  1.000000
                       1.000000  1.000000  1.000000  1.000000  1.000000  1.000000
                       1.000000  1.000000  1.000000  1.000000  1.000000  1.000000
                       1.000000  1.000000  1.000000  1.000000  1.000000  1.000000
                       1.000000  1.000000  1.000000  1.000000  1.000000  1.000000
                       1.000000  1.000000  1.000000  1.000000  1.000000  1.000000
                       1.000000  1.000000  1.000000  1.000000  1.000000  1.000000
                       1.000000  1.000000  1.000000  1.000000  1.000000  1.000000
                       1.000000  1.000000  0.000000  0.000000  0.000000  0.000000
                       0.000000  0.000000  0.000000  0.000000  0.000000  0.000000
                       0.000000  0.000000  0.000000  0.000000  0.000000
                       1.000000  1.000000  1.000000  1.000000  1.000000  1.000000
                       1.000000  1.000000  1.000000  1.000000  1.000000  1.000000
                       1.000000  1.000000  1.000000  1.000000  1.000000  1.000000
                       1.000000  1.000000  1.000000  1.000000  1.000000  1.000000
                       1.000000  1.000000  1.000000  1.000000  1.000000  1.000000
                       1.000000  1.000000  1.000000  1.000000  1.000000  1.000000
                       1.000000  1.000000  1.000000  1.000000  1.000000  1.000000
                       1.000000  1.000000  1.000000  1.000000  1.000000  1.000000
                       1.000000  1.000000  0.000000  0.000000  0.000000  0.000000
                       0.000000  0.000000  0.000000  0.000000  0.000000  0.000000
                       0.000000  0.000000  0.000000  0.000000  0.000000
                       1.000000  1.000000  1.000000  1.000000  1.000000  1.000000
                       1.000000  1.000000  1.000000  1.000000  1.000000  1.000000
                       1.000000  1.000000  1.000000  1.000000  1.000000  1.000000
                       1.000000  1.000000  1.000000  1.000000  1.000000  1.000000
                       1.000000  1.000000  1.000000  1.000000  1.000000  1.000000
                       1.000000  1.000000  1.000000  1.000000  1.000000  1.000000
                       1.000000  1.000000  1.000000  1.000000  1.000000  1.000000
                       1.000000  1.000000  1.000000  1.000000  1.000000  1.000000
                       1.000000  1.000000  0.000000  0.000000  0.000000  0.000000
                       0.000000  0.000000  0.000000  0.000000  0.000000  0.000000
                       0.000000  0.000000  0.000000  0.000000  0.000000
                       1.000000  1.000000  1.000000  1.000000  1.000000  1.000000
                       1.000000  1.000000  1.000000  1.000000  1.000000  1.000000
                       1.000000  1.000000  1.000000  1.000000  1.000000  1.000000
                       1.000000  1.000000  1.000000  1.000000  1.000000  1.000000
                       1.000000  1.000000  1.000000  1.000000  1.000000  1.000000
                       1.000000  1.000000  1.000000  1.000000  1.000000  1.000000
                       1.000000  1.000000  1.000000  1.000000  1.000000  1.000000
                       1.000000  1.000000  1.000000  1.000000  1.000000  1.000000
                       1.000000  1.000000  0.000000  0.000000  0.000000  0.000000
                       0.000000  0.000000  0.000000  0.000000  0.000000  0.000000
                       0.000000  0.000000  0.000000  0.000000  0.000000
                       1.000000  1.000000  1.000000  1.000000  1.000000  1.000000
                       1.000000  1.000000  1.000000  1.000000  1.000000  1.000000
                       1.000000  1.000000  1.000000  1.000000  1.000000  1.000000
                       1.000000  1.000000  1.000000  1.000000  1.000000  1.000000
                       1.000000  1.000000  1.000000  1.000000  1.000000  1.000000
                       1.000000  1.000000  1.000000  1.000000  1.000000  1.000000
                       1.000000  1.000000  1.000000  1.000000  1.000000  1.000000
                       1.000000  1.000000  1.000000  1.000000  1.000000  1.000000
                       1.000000  1.000000  0.000000  0.000000  0.000000  0.000000
                       0.000000  0.000000  0.000000  0.000000  0.000000  0.000000
                       0.000000  0.000000  0.000000  0.000000  0.000000
           occopt           3
           prtden           0
           prteig           0
          prtkden           1
            prtwf           0
            rprim      0.0000000000E+00  1.0137047334E+01  0.0000000000E+00
                       9.6126033568E+00  0.0000000000E+00  0.0000000000E+00
                       0.0000000000E+00 -5.7455806104E+00 -9.8776109362E+00
           shiftk      5.00000000E-01  5.00000000E-01  5.00000000E-01
          spgroup           1
           spinat      0.0000000000E+00  0.0000000000E+00  1.0000000000E+00
                       0.0000000000E+00  0.0000000000E+00  1.0000000000E+00
                       0.0000000000E+00  0.0000000000E+00  1.0000000000E+00
                       0.0000000000E+00  0.0000000000E+00  1.0000000000E+00
                       0.0000000000E+00  0.0000000000E+00  1.0000000000E+00
                       0.0000000000E+00  0.0000000000E+00  1.0000000000E+00
                       0.0000000000E+00  0.0000000000E+00  1.0000000000E+00
                       0.0000000000E+00  0.0000000000E+00  1.0000000000E+00
                       0.0000000000E+00  0.0000000000E+00  1.0000000000E+00
                       0.0000000000E+00  0.0000000000E+00  1.0000000000E+00
                       0.0000000000E+00  0.0000000000E+00  1.0000000000E+00
                       0.0000000000E+00  0.0000000000E+00  1.0000000000E+00
                       0.0000000000E+00  0.0000000000E+00  1.0000000000E+00
                       0.0000000000E+00  0.0000000000E+00  1.0000000000E+00
           toldfe      1.00000000E-06 Hartree
           tsmear      1.00000000E-03 Hartree
            typat      1  1  2  2  2  2  3  3  3  3  3  3  3  3
          usekden           1
              wtk        0.25000    0.25000    0.25000    0.25000
           xangst      2.4416498936E+00 -1.4594065484E+00 -2.5089631597E+00
                       0.0000000000E+00  0.0000000000E+00  0.0000000000E+00
                       3.0300240350E+00  1.1433779162E+00 -2.0615096519E+00
                       5.8837414145E-01  2.5469381705E+00 -4.4745350783E-01
                       1.8532757521E+00  1.0875316221E+00 -2.9564166676E+00
                       4.2949256457E+00 -3.1602863216E-01 -4.5704728116E+00
                       1.4286288859E+00  2.1451884079E+00 -3.4049540475E+00
                       3.8702787795E+00 -1.3736854180E+00 -4.1219354317E+00
                       3.4546709012E+00  8.5721130411E-02 -1.6129722720E+00
                       1.0130210076E+00  3.6045949563E+00 -8.9599088775E-01
                       3.4948604585E+00  2.2392312205E+00 -1.8379610344E+00
                       1.0532105649E+00  1.4510848662E+00 -6.7100212536E-01
                       1.3884393287E+00 -8.3216821605E-03 -3.1799652851E+00
                       3.8300892223E+00  7.7982467206E-01 -4.3469241941E+00
            xcart      4.6140496112E+00 -2.7578786930E+00 -4.7412532494E+00
                       0.0000000000E+00  0.0000000000E+00  0.0000000000E+00
                       5.7259156023E+00  2.1606711281E+00 -3.8956886624E+00
                       1.1118659910E+00  4.8130156196E+00 -8.4556458700E-01
                       3.5021836202E+00  2.0551369266E+00 -5.5868178364E+00
                       8.1162332315E+00 -5.9720756494E-01 -8.6369419118E+00
                       2.6997173399E+00  4.0538185943E+00 -6.4344306448E+00
                       7.3137669512E+00 -2.5958892327E+00 -7.7893291034E+00
                       6.5283818826E+00  1.6198946028E-01 -3.0480758540E+00
                       1.9143322713E+00  6.8116972873E+00 -1.6931773954E+00
                       6.6043291392E+00  4.2315337549E+00 -3.4732429979E+00
                       1.9902795279E+00  2.7421529928E+00 -1.2680102515E+00
                       2.6237700833E+00 -1.5725700248E-02 -6.0092635009E+00
                       7.2378196946E+00  1.4736550619E+00 -8.2144962473E+00
             xred      2.1722862911E-17  5.0000000000E-01  5.0000000000E-01
                       0.0000000000E+00  0.0000000000E+00  0.0000000000E+00
                       4.5488100000E-01  6.2048700000E-01  4.1082900000E-01
                       5.4511900000E-01  1.2048700000E-01  8.9171000000E-02
                       5.4511900000E-01  3.7951300000E-01  5.8917100000E-01
                       4.5488100000E-01  8.7951300000E-01  9.1082900000E-01
                       8.0116400000E-01  2.9255400000E-01  6.7855800000E-01
                       1.9883600000E-01  7.9255400000E-01  8.2144200000E-01
                       1.9883600000E-01  7.0744600000E-01  3.2144200000E-01
                       8.0116400000E-01  2.0744600000E-01  1.7855800000E-01
                       6.4242900000E-01  7.1567600000E-01  3.6627900000E-01
                       3.5757100000E-01  2.1567600000E-01  1.3372100000E-01
                       3.5757100000E-01  2.8432400000E-01  6.3372100000E-01
                       6.4242900000E-01  7.8432400000E-01  8.6627900000E-01
            znucl       28.00000    6.00000    8.00000

================================================================================

 chkinp: Checking input parameters for consistency.

================================================================================
== DATASET  1 ==================================================================
-   mpi_nproc: 8, omp_nthreads: -1 (-1 if OMP is not activated)


--- !DatasetInfo
iteration_state: {dtset: 1, }
dimensions: {natom: 14, nkpt: 4, mband: 65, nsppol: 2, nspinor: 1, nspden: 2, mpw: 160771, }
cutoff_energies: {ecut: 250.0, pawecutdg:  -1.0, }
electrons: {nelect:   1.00000000E+02, charge:   0.00000000E+00, occopt:   3.00000000E+00, tsmear:   1.00000000E-03, }
meta: {optdriver: 0, ionmov: 0, optcell: 0, iscf: 7, paral_kgb: 0, }
...

 Real(R)+Recip(G) space primitive vectors, cartesian coordinates (Bohr,Bohr^-1):
 R(1)=  0.0000000  9.7315654  0.0000000  G(1)=  0.0000000  0.1027584 -0.0597722
 R(2)=  9.2280992  0.0000000  0.0000000  G(2)=  0.1083647  0.0000000  0.0000000
 R(3)=  0.0000000 -5.5157574 -9.4825065  G(3)=  0.0000000  0.0000000 -0.1054573
 Unit cell volume ucvol=  8.5156561E+02 bohr^3
 Angles (23,13,12)=  9.00000000E+01  1.20185586E+02  9.00000000E+01 degrees

 getcut: wavevector=  0.0000  0.0000  0.0000  ngfft= 144 135 160
         ecut(hartree)=    250.000   => boxcut(ratio)=   2.04013

--- Pseudopotential description ------------------------------------------------
- pspini: atom type   1  psp file is ../Ni.pot
- pspatm: opening atomic psp file    ../Ni.pot
- Ni    ONCVPSP-4.0.1  r_core=   2.18101   2.18101   2.24723
- 28.00000  18.00000    200312                znucl, zion, pspdat
    8   11    2    4       600   0.00000      pspcod,pspxc,lmax,lloc,mmax,r2well
    5.99000000000000    0.00000000000000    0.00000000000000   rchrg,fchrg,qchrg
     nproj     2     2     2
     extension_switch     1
  pspatm : epsatm=   38.47316822
         --- l  ekb(1:nproj) -->
             0   -3.440917   -0.196078
             1   -5.406223   -1.725842
             2   -7.274254   -2.503385
 pspatm: atomic psp has been read  and splines computed

- pspini: atom type   2  psp file is ../C.pot
- pspatm: opening atomic psp file    ../C.pot
- C     ONCVPSP-4.0.1  r_core=   1.42727   1.38521
-  6.00000   4.00000    200312                znucl, zion, pspdat
    8   11    1    4       600   0.00000      pspcod,pspxc,lmax,lloc,mmax,r2well
    5.99000000000000    0.00000000000000    0.00000000000000   rchrg,fchrg,qchrg
     nproj     2     2
     extension_switch     1
  pspatm : epsatm=    2.26998732
         --- l  ekb(1:nproj) -->
             0    7.571912    0.889574
             1   -3.169338   -0.856835
 pspatm: atomic psp has been read  and splines computed

- pspini: atom type   3  psp file is ../O.pot
- pspatm: opening atomic psp file    ../O.pot
- O     ONCVPSP-4.0.1  r_core=   1.28926   1.47061
-  8.00000   6.00000    200312                znucl, zion, pspdat
    8   11    1    4       600   0.00000      pspcod,pspxc,lmax,lloc,mmax,r2well
    5.99000000000000    0.00000000000000    0.00000000000000   rchrg,fchrg,qchrg
     nproj     2     2
     extension_switch     1
  pspatm : epsatm=    3.44365635
         --- l  ekb(1:nproj) -->
             0    9.802940    1.339963
             1   -3.661294   -1.085684
 pspatm: atomic psp has been read  and splines computed

   1.13575537E+04                                ecore*ucvol(ha*bohr**3)
--------------------------------------------------------------------------------

_setup2: Arith. and geom. avg. npw (full set) are  160765.000  160765.000

================================================================================

--- !BeginCycle
iteration_state: {dtset: 1, }
solver: {iscf: 7, nstep: 60, nline: 4, wfoptalg: 0, }
tolerances: {toldfe: 1.00E-06, }
...

     iter   Etot(hartree)     deltaE(h) residm    vres2    magn
 ETOT  1  -456.73399199278    -4.57E+02 4.69E-01 1.80E+05 1.991
 ETOT  2  -457.67862288068    -9.45E-01 1.39E-02 4.30E+05 3.029
 ETOT  3  -458.96370134812    -1.29E+00 1.47E-02 1.34E+05 3.552
 ETOT  4  -458.96026110142     3.44E-03 8.66E-03 1.13E+05 3.501
 ETOT  5  -459.00807065586    -4.78E-02 1.93E-03 9.51E+04 3.958
 ETOT  6  -459.05152884173    -4.35E-02 1.29E-03 6.54E+04 4.000
 ETOT  7  -459.07994642180    -2.84E-02 9.65E-04 3.29E+04 4.000
 ETOT  8  -459.10799602852    -2.80E-02 1.14E-03 9.22E+03 4.000
 ETOT  9  -459.11491903039    -6.92E-03 6.38E-04 4.66E+03 4.000
 ETOT 10  -459.11659051063    -1.67E-03 7.07E-04 2.46E+03 4.000
 ETOT 11  -459.11681563133    -2.25E-04 4.14E-04 1.29E+03 4.000
 ETOT 12  -459.11723340087    -4.18E-04 5.05E-04 2.40E+02 4.000
 ETOT 13  -459.11739204638    -1.59E-04 3.15E-04 1.02E+02 4.000
 ETOT 14  -459.11742741998    -3.54E-05 2.92E-04 1.74E+01 4.000
 ETOT 15  -459.11742969667    -2.28E-06 1.97E-04 6.44E+00 4.000
 ETOT 16  -459.11743121129    -1.51E-06 1.59E-04 2.28E+00 4.000
 ETOT 17  -459.11743195855    -7.47E-07 1.15E-04 1.17E+00 4.000
 ETOT 18  -459.11743247510    -5.17E-07 8.31E-05 6.15E-01 4.000

 At SCF step   18, etot is converged : 
  for the second time, diff in etot=  5.165E-07 < toldfe=  1.000E-06

Result for kinetic energy density :

--------------------------------------------------------------------------------
 Total kinetic energy density [Ha/Bohr^3]
      Maximum=    1.9642E+01  at reduced coord.    0.0000    0.5111    0.4875
      Minimum=    1.4285E-03  at reduced coord.    0.0000    0.0000    0.5000
   Integrated=    2.3931E+02
 Spin up density      [Ha/Bohr^3]
      Maximum=    1.0259E+01  at reduced coord.    0.0139    0.5259    0.5063
      Minimum=    7.0795E-04  at reduced coord.    0.0000    0.0000    0.5000
   Integrated=    1.2988E+02
 Spin down density    [Ha/Bohr^3]
      Maximum=    9.8745E+00  at reduced coord.    0.0000    0.0000    0.0000
      Minimum=    7.2052E-04  at reduced coord.    0.0000    0.0000    0.5000
   Integrated=    1.0943E+02
 Magnetization (spin up - spin down) [Ha/Bohr^3]
      Maximum=    3.0189E+00  at reduced coord.    0.9792    0.9778    0.0313
      Minimum=   -2.9230E-01  at reduced coord.    0.0000    0.0000    0.0000
   Integrated=    2.0448E+01
 Relative magnetization (=zeta, between -1 and 1)
      Maximum=    3.2277E-01  at reduced coord.    0.0694    0.5926    0.4188
      Minimum=   -1.9860E-02  at reduced coord.    0.8125    0.8963    0.7125
--------------------------------------------------------------------------------

 Cartesian components of stress tensor (hartree/bohr^3)
  sigma(1 1)=  1.41298239E-02  sigma(3 2)=  1.48098169E-04
  sigma(2 2)=  1.29451440E-02  sigma(3 1)= -3.82947283E-07
  sigma(3 3)=  1.42743160E-02  sigma(2 1)=  2.08472341E-07


--- !ResultsGS
iteration_state: {dtset: 1, }
comment   : Summary of ground state results
lattice_vectors:
- [  0.0000000,   9.7315654,   0.0000000, ]
- [  9.2280992,   0.0000000,   0.0000000, ]
- [  0.0000000,  -5.5157574,  -9.4825065, ]
lattice_lengths: [   9.73157,    9.22810,   10.97003, ]
lattice_angles: [ 90.000, 120.186,  90.000, ] # degrees, (23, 13, 12)
lattice_volume:   8.5156561E+02
convergence: {deltae: -5.165E-07, res2:  6.150E-01, residm:  8.306E-05, diffor: null, }
etotal    :  -4.59117432E+02
entropy   :   0.00000000E+00
fermie    :   1.73778388E-01
cartesian_stress_tensor: # hartree/bohr^3
- [  1.41298239E-02,   2.08472341E-07,  -3.82947283E-07, ]
- [  2.08472341E-07,   1.29451440E-02,   1.48098169E-04, ]
- [ -3.82947283E-07,   1.48098169E-04,   1.42743160E-02, ]
pressure_GPa:  -4.0551E+02
xred      :
- [  2.1723E-17,   5.0000E-01,   5.0000E-01, Ni]
- [  0.0000E+00,   0.0000E+00,   0.0000E+00, Ni]
- [  4.5488E-01,   6.2049E-01,   4.1083E-01,  C]
- [  5.4512E-01,   1.2049E-01,   8.9171E-02,  C]
- [  5.4512E-01,   3.7951E-01,   5.8917E-01,  C]
- [  4.5488E-01,   8.7951E-01,   9.1083E-01,  C]
- [  8.0116E-01,   2.9255E-01,   6.7856E-01,  O]
- [  1.9884E-01,   7.9255E-01,   8.2144E-01,  O]
- [  1.9884E-01,   7.0745E-01,   3.2144E-01,  O]
- [  8.0116E-01,   2.0745E-01,   1.7856E-01,  O]
- [  6.4243E-01,   7.1568E-01,   3.6628E-01,  O]
- [  3.5757E-01,   2.1568E-01,   1.3372E-01,  O]
- [  3.5757E-01,   2.8432E-01,   6.3372E-01,  O]
- [  6.4243E-01,   7.8432E-01,   8.6628E-01,  O]
cartesian_forces: # hartree/bohr
- [ -1.18055575E-06,   5.88410935E-06,   1.98312931E-06, ]
- [ -1.21325843E-06,  -1.00755748E-06,  -3.37214402E-06, ]
- [ -1.54682818E-02,   1.40715525E-04,  -1.17610186E-02, ]
- [ -1.55158040E-02,  -1.54807617E-04,   1.17485902E-02, ]
- [  1.54684609E-02,  -1.48592889E-04,   1.17623882E-02, ]
- [  1.55163335E-02,   1.56525126E-04,  -1.17488252E-02, ]
- [ -2.03762597E-02,   4.65266095E-02,  -2.18918555E-02, ]
- [ -1.99401371E-02,  -4.65831904E-02,   2.18520868E-02, ]
- [  2.03760870E-02,  -4.65252715E-02,   2.18919761E-02, ]
- [  1.99397770E-02,   4.65820247E-02,  -2.18519098E-02, ]
- [  2.81859129E-02,   4.44171933E-02,   1.32908175E-02, ]
- [  2.76706218E-02,  -4.45496713E-02,  -1.34000393E-02, ]
- [ -2.81837445E-02,  -4.44169110E-02,  -1.32911503E-02, ]
- [ -2.76705722E-02,   4.45505000E-02,   1.34003289E-02, ]
force_length_stats: {min:   3.72270378E-06, max:   5.53097702E-02, mean:   3.68254983E-02, }
...

 Integrated electronic and magnetization densities in atomic spheres:
 ---------------------------------------------------------------------
 Radius=ratsph(iatom), smearing ratsm=  0.0000. Diff(up-dn)=approximate z local magnetic moment.
 Atom    Radius    up_density   dn_density  Total(up+dn)  Diff(up-dn)
    1   2.00000     8.930423     7.227671     16.158094     1.702752
    2   2.00000     8.929783     7.227279     16.157062     1.702503
    3   2.00000     3.059338     3.032072      6.091410     0.027266
    4   2.00000     3.058841     3.031632      6.090473     0.027209
    5   2.00000     3.059335     3.032074      6.091409     0.027261
    6   2.00000     3.058838     3.031634      6.090472     0.027203
    7   2.00000     3.401685     3.304691      6.706376     0.096994
    8   2.00000     3.402212     3.305112      6.707324     0.097101
    9   2.00000     3.401680     3.304684      6.706364     0.096996
   10   2.00000     3.402209     3.305110      6.707319     0.097099
   11   2.00000     3.408110     3.355063      6.763172     0.053047
   12   2.00000     3.408467     3.355386      6.763853     0.053081
   13   2.00000     3.408106     3.355055      6.763162     0.053051
   14   2.00000     3.408468     3.355385      6.763853     0.053083
 ---------------------------------------------------------------------
  Sum:             57.337494    53.222850    110.560344     4.114644
 Total magnetization (from the atomic spheres):             4.114644
 Total magnetization (exact up - dn):                       4.000000
================================================================================

 ----iterations are completed or convergence reached----

 Mean square residual over all n,k,spin=   33.134E-08; max=  83.056E-06
 reduced coordinates (array xred) for   14 atoms
       0.000000000000      0.500000000000      0.500000000000
       0.000000000000      0.000000000000      0.000000000000
       0.454881000000      0.620487000000      0.410829000000
       0.545119000000      0.120487000000      0.089171000000
       0.545119000000      0.379513000000      0.589171000000
       0.454881000000      0.879513000000      0.910829000000
       0.801164000000      0.292554000000      0.678558000000
       0.198836000000      0.792554000000      0.821442000000
       0.198836000000      0.707446000000      0.321442000000
       0.801164000000      0.207446000000      0.178558000000
       0.642429000000      0.715676000000      0.366279000000
       0.357571000000      0.215676000000      0.133721000000
       0.357571000000      0.284324000000      0.633721000000
       0.642429000000      0.784324000000      0.866279000000
 rms dE/dt=  2.5206E-01; max dE/dt=  4.5333E-01; dE/dt below (all hartree)
    1      -0.000055846185      0.000011068814      0.000050688167
    2       0.000011220522      0.000011370598     -0.000038106009
    3      -0.001367966927      0.142743013462     -0.110748354427
    4       0.001507935870      0.143181553482      0.110551629220
    5       0.001447456830     -0.142744317655      0.110716748426
    6      -0.001521819101     -0.143186090196     -0.110545528826
    7      -0.452775329390      0.188034320418      0.049039255347
    8       0.453328781261      0.184009738160     -0.049729593385
    9       0.452765139299     -0.188032377997     -0.049031876698
   10      -0.453314606749     -0.184006066173      0.049723697696
   11      -0.432247407942     -0.260102226297      0.371024153378
   12       0.433539456816     -0.255347068614     -0.372791710296
   13       0.432247491843      0.260082565136     -0.371026896254
   14      -0.433544690401      0.255346960262      0.372797883015

 cartesian coordinates (angstrom) at end:
    1      2.44164989357349    -1.45940654839242    -2.50896315973129
    2      0.00000000000000     0.00000000000000     0.00000000000000
    3      3.03002403502747     1.14337791622746    -2.06150965189849
    4      0.58837414145398     2.54693817045717    -0.44745350783280
    5      1.85327575211951     1.08753162206474    -2.95641666756408
    6      4.29492564569300    -0.31602863216496    -4.57047281162977
    7      1.42862888592900     2.14518840788074    -3.40495404748188
    8      3.87027877950248    -1.37368541798096    -4.12193543171197
    9      3.45467090121798     0.08572113041147    -1.61297227198069
   10      1.01302100764449     3.60459495627316    -0.89599088775060
   11      3.49486045846620     2.23923122045266    -1.83796103436643
   12      1.05321056489271     1.45108486623197    -0.67100212536485
   13      1.38843932868078    -0.00832168216045    -3.17996528509614
   14      3.83008922225426     0.77982467206023    -4.34692419409772

 cartesian forces (hartree/bohr) at end:
    1     -0.00000118055575     0.00000588410935     0.00000198312931
    2     -0.00000121325843    -0.00000100755748    -0.00000337214402
    3     -0.01546828176550     0.00014071552475    -0.01176101856059
    4     -0.01551580401350    -0.00015480761745     0.01174859017318
    5      0.01546846091943    -0.00014859288867     0.01176238824117
    6      0.01551633345850     0.00015652512647    -0.01174882519444
    7     -0.02037625965608     0.04652660947134    -0.02189185552662
    8     -0.01994013709598    -0.04658319040418     0.02185208682599
    9      0.02037608699176    -0.04652527146336     0.02189197605369
   10      0.01993977700773     0.04658202474472    -0.02185190984917
   11      0.02818591289003     0.04441719330668     0.01329081752135
   12      0.02767062175925    -0.04454967127858    -0.01340003929594
   13     -0.02818374448922    -0.04441691103756    -0.01329115028422
   14     -0.02767057219224     0.04455049996398     0.01340032891031
 frms,max,avg= 2.4625228E-02 4.6583190E-02  -1.891E-08 -1.454E-07  2.426E-08 h/b

 cartesian forces (eV/Angstrom) at end:
    1     -0.00006070661229     0.00030257304262     0.00010197660076
    2     -0.00006238825150    -0.00005181068458    -0.00017340260301
    3     -0.79541096242072     0.00723588260557    -0.60477583962737
    4     -0.79785465446032    -0.00796052708717     0.60413674630458
    5      0.79542017488548    -0.00764095291091     0.60484627142902
    6      0.79788187961442     0.00804884494453    -0.60414883158268
    7     -1.04778931165590     2.39249425235501    -1.12572437828497
    8     -1.02536298981133    -2.39540376065897     1.12367938964786
    9      1.04778043290030    -2.39242544922415     1.12573057603547
   10      1.02534447333022     2.39534382004465    -1.12367028913493
   11      1.44937779376170     2.28402372103738     0.68344125845916
   12      1.42288046067255    -2.29083601168002    -0.68905766745400
   13     -1.44926629011831    -2.28400920617698    -0.68345836981260
   14     -1.42287791183430     2.29087862439302     0.68907256002271
 frms,max,avg= 1.2662800E+00 2.3954038E+00  -9.725E-07 -7.479E-06  1.248E-06 e/A
 length scales=  0.960000000000  0.960000000000  0.960000000000 bohr
              =  0.508010120246  0.508010120246  0.508010120246 angstroms
 Fermi (or HOMO) energy (hartree) =   0.17378   Average Vxc (hartree)=  -0.43149
 Magnetization (Bohr magneton)=  4.00000000E+00
 Total spin up =  5.20000000E+01   Total spin down =  4.80000000E+01
 Eigenvalues (hartree) for nkpt=   4  k points, SPIN UP:
 kpt#   1, nband= 65, wtk=  0.25000, kpt=  0.2500  0.2500  0.2500 (reduced coord)
  -3.80996   -3.80995   -2.33648   -2.33647   -2.33476   -2.33474   -2.32929   -2.32925
  -0.78557   -0.77461   -0.74397   -0.74231   -0.69134   -0.68664   -0.66146   -0.65995
  -0.33022   -0.30854   -0.21167   -0.20044   -0.19760   -0.19365   -0.16708   -0.15450
  -0.14438   -0.13427   -0.11867   -0.10728   -0.08496   -0.05992   -0.05156   -0.05139
  -0.03055   -0.02455   -0.01691   -0.00541   -0.00123    0.01304    0.01978    0.02799
   0.04480    0.04941    0.05715    0.06542    0.06769    0.07660    0.08305    0.08963
   0.09165    0.10365    0.12050    0.12788    0.26754    0.28428    0.41094    0.43291
   0.44100    0.47782    0.50791    0.52261    0.54918    0.56951    0.59665    0.60286
   0.63200
      occupation numbers for kpt#   1
   1.00000    1.00000    1.00000    1.00000    1.00000    1.00000    1.00000    1.00000
   1.00000    1.00000    1.00000    1.00000    1.00000    1.00000    1.00000    1.00000
   1.00000    1.00000    1.00000    1.00000    1.00000    1.00000    1.00000    1.00000
   1.00000    1.00000    1.00000    1.00000    1.00000    1.00000    1.00000    1.00000
   1.00000    1.00000    1.00000    1.00000    1.00000    1.00000    1.00000    1.00000
   1.00000    1.00000    1.00000    1.00000    1.00000    1.00000    1.00000    1.00000
   1.00000    1.00000    1.00000    1.00000    0.00000    0.00000    0.00000    0.00000
   0.00000    0.00000    0.00000    0.00000    0.00000    0.00000    0.00000    0.00000
   0.00000
 prteigrs : prtvol=0 or 1, do not print more k-points.

 Eigenvalues (hartree) for nkpt=   4  k points, SPIN DOWN:
 kpt#   1, nband= 65, wtk=  0.25000, kpt=  0.2500  0.2500  0.2500 (reduced coord)
  -3.72931   -3.72901   -2.22089   -2.22082   -2.22004   -2.22000   -2.21769   -2.21745
  -0.78175   -0.77060   -0.73944   -0.73774   -0.68649   -0.68139   -0.65582   -0.65446
  -0.32724   -0.30537   -0.20503   -0.19425   -0.18819   -0.18576   -0.16035   -0.14683
  -0.13926   -0.12386   -0.11081   -0.09825   -0.08205   -0.05344   -0.03233   -0.02237
  -0.00686   -0.00140    0.00245    0.01150    0.03008    0.03179    0.03931    0.04747
   0.05410    0.07041    0.09675    0.10354    0.10682    0.10891    0.11262    0.11737
   0.23971    0.24818    0.26026    0.26967    0.27646    0.28849    0.41206    0.43460
   0.45165    0.48707    0.51409    0.52987    0.55625    0.57530    0.60129    0.60736
   0.63669
      occupation numbers for kpt#   1
   1.00000    1.00000    1.00000    1.00000    1.00000    1.00000    1.00000    1.00000
   1.00000    1.00000    1.00000    1.00000    1.00000    1.00000    1.00000    1.00000
   1.00000    1.00000    1.00000    1.00000    1.00000    1.00000    1.00000    1.00000
   1.00000    1.00000    1.00000    1.00000    1.00000    1.00000    1.00000    1.00000
   1.00000    1.00000    1.00000    1.00000    1.00000    1.00000    1.00000    1.00000
   1.00000    1.00000    1.00000    1.00000    1.00000    1.00000    1.00000    1.00000
   0.00000    0.00000    0.00000    0.00000    0.00000    0.00000    0.00000    0.00000
   0.00000    0.00000    0.00000    0.00000    0.00000    0.00000    0.00000    0.00000
   0.00000
 prteigrs : prtvol=0 or 1, do not print more k-points.


--- !EnergyTerms
iteration_state     : {dtset: 1, }
comment             : Components of total free energy in Hartree
kinetic             :  2.39305114600571E+02
hartree             :  1.62676758891551E+02
xc                  : -6.59721620216811E+01
Ewald energy        : -2.77155618282957E+02
psp_core            :  1.33372620784571E+01
local_psp           : -4.20581165660102E+02
non_local_psp       : -1.10727622080938E+02
internal            : -4.59117432475098E+02
'-kT*entropy'       :  4.26290451696855E-15
total_energy        : -4.59117432475098E+02
total_energy_eV     : -1.24932206918975E+04
band_energy         : -5.68500080492546E+01
...


 Cartesian components of stress tensor (hartree/bohr^3)
  sigma(1 1)=  1.41298239E-02  sigma(3 2)=  1.48098169E-04
  sigma(2 2)=  1.29451440E-02  sigma(3 1)= -3.82947283E-07
  sigma(3 3)=  1.42743160E-02  sigma(2 1)=  2.08472341E-07

-Cartesian components of stress tensor (GPa)         [Pressure= -4.0551E+02 GPa]
- sigma(1 1)=  4.15713701E+02  sigma(3 2)=  4.35719784E+00
- sigma(2 2)=  3.80859222E+02  sigma(3 1)= -1.12666962E-02
- sigma(3 3)=  4.19964805E+02  sigma(2 1)=  6.13346700E-03

== END DATASET(S) ==============================================================
================================================================================
  
 -outvars: echo values of variables after computation  --------
            acell      9.6000000000E-01  9.6000000000E-01  9.6000000000E-01 Bohr
              amu      5.86900000E+01  1.20110000E+01  1.59994000E+01
        autoparal           1
           diemac      1.00000000E+00
           diemix      4.00000000E-01
             ecut      2.50000000E+02 Hartree
           ecutsm      5.00000000E-01 Hartree
           etotal     -4.5911743248E+02
            fcart     -1.1805557482E-06  5.8841093460E-06  1.9831293113E-06
                      -1.2132584270E-06 -1.0075574834E-06 -3.3721440223E-06
                      -1.5468281766E-02  1.4071552475E-04 -1.1761018561E-02
                      -1.5515804013E-02 -1.5480761745E-04  1.1748590173E-02
                       1.5468460919E-02 -1.4859288867E-04  1.1762388241E-02
                       1.5516333458E-02  1.5652512647E-04 -1.1748825194E-02
                      -2.0376259656E-02  4.6526609471E-02 -2.1891855527E-02
                      -1.9940137096E-02 -4.6583190404E-02  2.1852086826E-02
                       2.0376086992E-02 -4.6525271463E-02  2.1891976054E-02
                       1.9939777008E-02  4.6582024745E-02 -2.1851909849E-02
                       2.8185912890E-02  4.4417193307E-02  1.3290817521E-02
                       2.7670621759E-02 -4.4549671279E-02 -1.3400039296E-02
                      -2.8183744489E-02 -4.4416911038E-02 -1.3291150284E-02
                      -2.7670572192E-02  4.4550499964E-02  1.3400328910E-02
-          fftalg         312
              ixc     -263267
              kpt      2.50000000E-01  2.50000000E-01  2.50000000E-01
                      -2.50000000E-01  2.50000000E-01  2.50000000E-01
                       2.50000000E-01 -2.50000000E-01  2.50000000E-01
                      -2.50000000E-01 -2.50000000E-01  2.50000000E-01
         kptrlatt        2    0    0      0    2    0      0    0    2
          kptrlen      1.84561984E+01
P           mkmem           1
            natom          14
            nband          65
            ngfft         144     135     160
             nkpt           4
-        np_spkpt           8
           nspden           2
           nsppol           2
            nstep          60
             nsym           1
           ntypat           3
              occ      1.000000  1.000000  1.000000  1.000000  1.000000  1.000000
                       1.000000  1.000000  1.000000  1.000000  1.000000  1.000000
                       1.000000  1.000000  1.000000  1.000000  1.000000  1.000000
                       1.000000  1.000000  1.000000  1.000000  1.000000  1.000000
                       1.000000  1.000000  1.000000  1.000000  1.000000  1.000000
                       1.000000  1.000000  1.000000  1.000000  1.000000  1.000000
                       1.000000  1.000000  1.000000  1.000000  1.000000  1.000000
                       1.000000  1.000000  1.000000  1.000000  1.000000  1.000000
                       1.000000  1.000000  1.000000  1.000000  0.000000  0.000000
                       0.000000  0.000000  0.000000  0.000000  0.000000  0.000000
                       0.000000  0.000000  0.000000  0.000000  0.000000
                       1.000000  1.000000  1.000000  1.000000  1.000000  1.000000
                       1.000000  1.000000  1.000000  1.000000  1.000000  1.000000
                       1.000000  1.000000  1.000000  1.000000  1.000000  1.000000
                       1.000000  1.000000  1.000000  1.000000  1.000000  1.000000
                       1.000000  1.000000  1.000000  1.000000  1.000000  1.000000
                       1.000000  1.000000  1.000000  1.000000  1.000000  1.000000
                       1.000000  1.000000  1.000000  1.000000  1.000000  1.000000
                       1.000000  1.000000  1.000000  1.000000  1.000000  1.000000
                       1.000000  1.000000  1.000000  1.000000  0.000000  0.000000
                       0.000000  0.000000  0.000000  0.000000  0.000000  0.000000
                       0.000000  0.000000  0.000000  0.000000  0.000000
                       1.000000  1.000000  1.000000  1.000000  1.000000  1.000000
                       1.000000  1.000000  1.000000  1.000000  1.000000  1.000000
                       1.000000  1.000000  1.000000  1.000000  1.000000  1.000000
                       1.000000  1.000000  1.000000  1.000000  1.000000  1.000000
                       1.000000  1.000000  1.000000  1.000000  1.000000  1.000000
                       1.000000  1.000000  1.000000  1.000000  1.000000  1.000000
                       1.000000  1.000000  1.000000  1.000000  1.000000  1.000000
                       1.000000  1.000000  1.000000  1.000000  1.000000  1.000000
                       1.000000  1.000000  1.000000  1.000000  0.000000  0.000000
                       0.000000  0.000000  0.000000  0.000000  0.000000  0.000000
                       0.000000  0.000000  0.000000  0.000000  0.000000
                       1.000000  1.000000  1.000000  1.000000  1.000000  1.000000
                       1.000000  1.000000  1.000000  1.000000  1.000000  1.000000
                       1.000000  1.000000  1.000000  1.000000  1.000000  1.000000
                       1.000000  1.000000  1.000000  1.000000  1.000000  1.000000
                       1.000000  1.000000  1.000000  1.000000  1.000000  1.000000
                       1.000000  1.000000  1.000000  1.000000  1.000000  1.000000
                       1.000000  1.000000  1.000000  1.000000  1.000000  1.000000
                       1.000000  1.000000  1.000000  1.000000  1.000000  1.000000
                       1.000000  1.000000  1.000000  1.000000  0.000000  0.000000
                       0.000000  0.000000  0.000000  0.000000  0.000000  0.000000
                       0.000000  0.000000  0.000000  0.000000  0.000000
                       1.000000  1.000000  1.000000  1.000000  1.000000  1.000000
                       1.000000  1.000000  1.000000  1.000000  1.000000  1.000000
                       1.000000  1.000000  1.000000  1.000000  1.000000  1.000000
                       1.000000  1.000000  1.000000  1.000000  1.000000  1.000000
                       1.000000  1.000000  1.000000  1.000000  1.000000  1.000000
                       1.000000  1.000000  1.000000  1.000000  1.000000  1.000000
                       1.000000  1.000000  1.000000  1.000000  1.000000  1.000000
                       1.000000  1.000000  1.000000  1.000000  1.000000  1.000000
                       0.000000  0.000000  0.000000  0.000000  0.000000  0.000000
                       0.000000  0.000000  0.000000  0.000000  0.000000  0.000000
                       0.000000  0.000000  0.000000  0.000000  0.000000
                       1.000000  1.000000  1.000000  1.000000  1.000000  1.000000
                       1.000000  1.000000  1.000000  1.000000  1.000000  1.000000
                       1.000000  1.000000  1.000000  1.000000  1.000000  1.000000
                       1.000000  1.000000  1.000000  1.000000  1.000000  1.000000
                       1.000000  1.000000  1.000000  1.000000  1.000000  1.000000
                       1.000000  1.000000  1.000000  1.000000  1.000000  1.000000
                       1.000000  1.000000  1.000000  1.000000  1.000000  1.000000
                       1.000000  1.000000  1.000000  1.000000  1.000000  1.000000
                       0.000000  0.000000  0.000000  0.000000  0.000000  0.000000
                       0.000000  0.000000  0.000000  0.000000  0.000000  0.000000
                       0.000000  0.000000  0.000000  0.000000  0.000000
                       1.000000  1.000000  1.000000  1.000000  1.000000  1.000000
                       1.000000  1.000000  1.000000  1.000000  1.000000  1.000000
                       1.000000  1.000000  1.000000  1.000000  1.000000  1.000000
                       1.000000  1.000000  1.000000  1.000000  1.000000  1.000000
                       1.000000  1.000000  1.000000  1.000000  1.000000  1.000000
                       1.000000  1.000000  1.000000  1.000000  1.000000  1.000000
                       1.000000  1.000000  1.000000  1.000000  1.000000  1.000000
                       1.000000  1.000000  1.000000  1.000000  1.000000  1.000000
                       0.000000  0.000000  0.000000  0.000000  0.000000  0.000000
                       0.000000  0.000000  0.000000  0.000000  0.000000  0.000000
                       0.000000  0.000000  0.000000  0.000000  0.000000
                       1.000000  1.000000  1.000000  1.000000  1.000000  1.000000
                       1.000000  1.000000  1.000000  1.000000  1.000000  1.000000
                       1.000000  1.000000  1.000000  1.000000  1.000000  1.000000
                       1.000000  1.000000  1.000000  1.000000  1.000000  1.000000
                       1.000000  1.000000  1.000000  1.000000  1.000000  1.000000
                       1.000000  1.000000  1.000000  1.000000  1.000000  1.000000
                       1.000000  1.000000  1.000000  1.000000  1.000000  1.000000
                       1.000000  1.000000  1.000000  1.000000  1.000000  1.000000
                       0.000000  0.000000  0.000000  0.000000  0.000000  0.000000
                       0.000000  0.000000  0.000000  0.000000  0.000000  0.000000
                       0.000000  0.000000  0.000000  0.000000  0.000000
           occopt           3
           prtden           0
           prteig           0
          prtkden           1
            prtwf           0
            rprim      0.0000000000E+00  1.0137047334E+01  0.0000000000E+00
                       9.6126033568E+00  0.0000000000E+00  0.0000000000E+00
                       0.0000000000E+00 -5.7455806104E+00 -9.8776109362E+00
           shiftk      5.00000000E-01  5.00000000E-01  5.00000000E-01
          spgroup           1
           spinat      0.0000000000E+00  0.0000000000E+00  1.0000000000E+00
                       0.0000000000E+00  0.0000000000E+00  1.0000000000E+00
                       0.0000000000E+00  0.0000000000E+00  1.0000000000E+00
                       0.0000000000E+00  0.0000000000E+00  1.0000000000E+00
                       0.0000000000E+00  0.0000000000E+00  1.0000000000E+00
                       0.0000000000E+00  0.0000000000E+00  1.0000000000E+00
                       0.0000000000E+00  0.0000000000E+00  1.0000000000E+00
                       0.0000000000E+00  0.0000000000E+00  1.0000000000E+00
                       0.0000000000E+00  0.0000000000E+00  1.0000000000E+00
                       0.0000000000E+00  0.0000000000E+00  1.0000000000E+00
                       0.0000000000E+00  0.0000000000E+00  1.0000000000E+00
                       0.0000000000E+00  0.0000000000E+00  1.0000000000E+00
                       0.0000000000E+00  0.0000000000E+00  1.0000000000E+00
                       0.0000000000E+00  0.0000000000E+00  1.0000000000E+00
           strten      1.4129823878E-02  1.2945144013E-02  1.4274315981E-02
                       1.4809816938E-04 -3.8294728347E-07  2.0847234102E-07
           toldfe      1.00000000E-06 Hartree
           tsmear      1.00000000E-03 Hartree
            typat      1  1  2  2  2  2  3  3  3  3  3  3  3  3
          usekden           1
              wtk        0.25000    0.25000    0.25000    0.25000
           xangst      2.4416498936E+00 -1.4594065484E+00 -2.5089631597E+00
                       0.0000000000E+00  0.0000000000E+00  0.0000000000E+00
                       3.0300240350E+00  1.1433779162E+00 -2.0615096519E+00
                       5.8837414145E-01  2.5469381705E+00 -4.4745350783E-01
                       1.8532757521E+00  1.0875316221E+00 -2.9564166676E+00
                       4.2949256457E+00 -3.1602863216E-01 -4.5704728116E+00
                       1.4286288859E+00  2.1451884079E+00 -3.4049540475E+00
                       3.8702787795E+00 -1.3736854180E+00 -4.1219354317E+00
                       3.4546709012E+00  8.5721130411E-02 -1.6129722720E+00
                       1.0130210076E+00  3.6045949563E+00 -8.9599088775E-01
                       3.4948604585E+00  2.2392312205E+00 -1.8379610344E+00
                       1.0532105649E+00  1.4510848662E+00 -6.7100212536E-01
                       1.3884393287E+00 -8.3216821605E-03 -3.1799652851E+00
                       3.8300892223E+00  7.7982467206E-01 -4.3469241941E+00
            xcart      4.6140496112E+00 -2.7578786930E+00 -4.7412532494E+00
                       0.0000000000E+00  0.0000000000E+00  0.0000000000E+00
                       5.7259156023E+00  2.1606711281E+00 -3.8956886624E+00
                       1.1118659910E+00  4.8130156196E+00 -8.4556458700E-01
                       3.5021836202E+00  2.0551369266E+00 -5.5868178364E+00
                       8.1162332315E+00 -5.9720756494E-01 -8.6369419118E+00
                       2.6997173399E+00  4.0538185943E+00 -6.4344306448E+00
                       7.3137669512E+00 -2.5958892327E+00 -7.7893291034E+00
                       6.5283818826E+00  1.6198946028E-01 -3.0480758540E+00
                       1.9143322713E+00  6.8116972873E+00 -1.6931773954E+00
                       6.6043291392E+00  4.2315337549E+00 -3.4732429979E+00
                       1.9902795279E+00  2.7421529928E+00 -1.2680102515E+00
                       2.6237700833E+00 -1.5725700248E-02 -6.0092635009E+00
                       7.2378196946E+00  1.4736550619E+00 -8.2144962473E+00
             xred      2.1722862911E-17  5.0000000000E-01  5.0000000000E-01
                       0.0000000000E+00  0.0000000000E+00  0.0000000000E+00
                       4.5488100000E-01  6.2048700000E-01  4.1082900000E-01
                       5.4511900000E-01  1.2048700000E-01  8.9171000000E-02
                       5.4511900000E-01  3.7951300000E-01  5.8917100000E-01
                       4.5488100000E-01  8.7951300000E-01  9.1082900000E-01
                       8.0116400000E-01  2.9255400000E-01  6.7855800000E-01
                       1.9883600000E-01  7.9255400000E-01  8.2144200000E-01
                       1.9883600000E-01  7.0744600000E-01  3.2144200000E-01
                       8.0116400000E-01  2.0744600000E-01  1.7855800000E-01
                       6.4242900000E-01  7.1567600000E-01  3.6627900000E-01
                       3.5757100000E-01  2.1567600000E-01  1.3372100000E-01
                       3.5757100000E-01  2.8432400000E-01  6.3372100000E-01
                       6.4242900000E-01  7.8432400000E-01  8.6627900000E-01
            znucl       28.00000    6.00000    8.00000

================================================================================


- Timing analysis has been suppressed with timopt=0



================================================================================

 Suggested references for the acknowledgment of ABINIT usage.

 The users of ABINIT have little formal obligations with respect to the ABINIT group
 (those specified in the GNU General Public License, http://www.gnu.org/copyleft/gpl.txt).
 However, it is common practice in the scientific literature,
 to acknowledge the efforts of people that have made the research possible.
 In this spirit, please find below suggested citations of work written by ABINIT developers,
 corresponding to implementations inside of ABINIT that you have used in the present run.
 Note also that it will be of great value to readers of publications presenting these results,
 to read papers enabling them to understand the theoretical formalism and details
 of the ABINIT implementation.
 For information on why they are suggested, see also https://docs.abinit.org/theory/acknowledgments.
-
- [1] Libxc: A library of exchange and correlation functionals for density functional theory.
- M.A.L. Marques, M.J.T. Oliveira, T. Burnus, Computer Physics Communications 183, 2227 (2012).
- Comment: to be cited when LibXC is used (negative value of ixc)
- Strong suggestion to cite this paper.
- DOI and bibtex: see https://docs.abinit.org/theory/bibliography/#marques2012
-
- [2] The Abinit project: Impact, environment and recent developments.
- Computer Phys. Comm. 248, 107042 (2020).
- X.Gonze, B. Amadon, G. Antonius, F.Arnardi, L.Baguet, J.-M.Beuken,
- J.Bieder, F.Bottin, J.Bouchet, E.Bousquet, N.Brouwer, F.Bruneval,
- G.Brunin, T.Cavignac, J.-B. Charraud, Wei Chen, M.Cote, S.Cottenier,
- J.Denier, G.Geneste, Ph.Ghosez, M.Giantomassi, Y.Gillet, O.Gingras,
- D.R.Hamann, G.Hautier, Xu He, N.Helbig, N.Holzwarth, Y.Jia, F.Jollet,
- W.Lafargue-Dit-Hauret, K.Lejaeghere, M.A.L.Marques, A.Martin, C.Martins,
- H.P.C. Miranda, F.Naccarato, K. Persson, G.Petretto, V.Planes, Y.Pouillon,
- S.Prokhorenko, F.Ricci, G.-M.Rignanese, A.H.Romero, M.M.Schmitt, M.Torrent,
- M.J.van Setten, B.Van Troeye, M.J.Verstraete, G.Zerah and J.W.Zwanzig
- Comment: the fifth generic paper describing the ABINIT project.
- Note that a version of this paper, that is not formatted for Computer Phys. Comm. 
- is available at https://www.abinit.org/sites/default/files/ABINIT20.pdf .
- The licence allows the authors to put it on the Web.
- DOI and bibtex: see https://docs.abinit.org/theory/bibliography/#gonze2020
-
- [3] Optimized norm-conserving Vanderbilt pseudopotentials.
- D.R. Hamann, Phys. Rev. B 88, 085117 (2013).
- Comment: Some pseudopotential generated using the ONCVPSP code were used.
- DOI and bibtex: see https://docs.abinit.org/theory/bibliography/#hamann2013
-
- [4] ABINIT: Overview, and focus on selected capabilities
- J. Chem. Phys. 152, 124102 (2020).
- A. Romero, D.C. Allan, B. Amadon, G. Antonius, T. Applencourt, L.Baguet,
- J.Bieder, F.Bottin, J.Bouchet, E.Bousquet, F.Bruneval,
- G.Brunin, D.Caliste, M.Cote,
- J.Denier, C. Dreyer, Ph.Ghosez, M.Giantomassi, Y.Gillet, O.Gingras,
- D.R.Hamann, G.Hautier, F.Jollet, G. Jomard,
- A.Martin, 
- H.P.C. Miranda, F.Naccarato, G.Petretto, N.A. Pike, V.Planes,
- S.Prokhorenko, T. Rangel, F.Ricci, G.-M.Rignanese, M.Royo, M.Stengel, M.Torrent,
- M.J.van Setten, B.Van Troeye, M.J.Verstraete, J.Wiktor, J.W.Zwanziger, and X.Gonze.
- Comment: a global overview of ABINIT, with focus on selected capabilities .
- Note that a version of this paper, that is not formatted for J. Chem. Phys 
- is available at https://www.abinit.org/sites/default/files/ABINIT20_JPC.pdf .
- The licence allows the authors to put it on the Web.
- DOI and bibtex: see https://docs.abinit.org/theory/bibliography/#romero2020
-
- [5] Recent developments in the ABINIT software package.
- Computer Phys. Comm. 205, 106 (2016).
- X.Gonze, F.Jollet, F.Abreu Araujo, D.Adams, B.Amadon, T.Applencourt,
- C.Audouze, J.-M.Beuken, J.Bieder, A.Bokhanchuk, E.Bousquet, F.Bruneval
- D.Caliste, M.Cote, F.Dahm, F.Da Pieve, M.Delaveau, M.Di Gennaro,
- B.Dorado, C.Espejo, G.Geneste, L.Genovese, A.Gerossier, M.Giantomassi,
- Y.Gillet, D.R.Hamann, L.He, G.Jomard, J.Laflamme Janssen, S.Le Roux,
- A.Levitt, A.Lherbier, F.Liu, I.Lukacevic, A.Martin, C.Martins,
- M.J.T.Oliveira, S.Ponce, Y.Pouillon, T.Rangel, G.-M.Rignanese,
- A.H.Romero, B.Rousseau, O.Rubel, A.A.Shukri, M.Stankovski, M.Torrent,
- M.J.Van Setten, B.Van Troeye, M.J.Verstraete, D.Waroquier, J.Wiktor,
- B.Xu, A.Zhou, J.W.Zwanziger.
- Comment: the fourth generic paper describing the ABINIT project.
- Note that a version of this paper, that is not formatted for Computer Phys. Comm. 
- is available at https://www.abinit.org/sites/default/files/ABINIT16.pdf .
- The licence allows the authors to put it on the Web.
- DOI and bibtex: see https://docs.abinit.org/theory/bibliography/#gonze2016
-
- Proc.   0 individual time (sec): cpu=       4106.0  wall=       4116.9

================================================================================

 Calculation completed.
.Delivered   0 WARNINGs and   0 COMMENTs to log file.
+Overall time at end (sec) : cpu=      32854.3  wall=      32936.2
