
.Version 9.6.2 of ABINIT 
.(MPI version, prepared for a x86_64_linux_gnu10.3 computer) 

.Copyright (C) 1998-2021 ABINIT group . 
 ABINIT comes with ABSOLUTELY NO WARRANTY.
 It is free software, and you are welcome to redistribute it
 under certain conditions (GNU General Public License,
 see ~abinit/COPYING or http://www.gnu.org/copyleft/gpl.txt).

 ABINIT is a project of the Universite Catholique de Louvain,
 Corning Inc. and other collaborators, see ~abinit/doc/developers/contributors.txt .
 Please read https://docs.abinit.org/theory/acknowledgments for suggested
 acknowledgments of the ABINIT effort.
 For more information, see https://www.abinit.org .

.Starting date : Thu  8 Dec 2022.
- ( at 17h27 )
  
- input  file    -> NiC2O4.in
- output file    -> NiC2O4.out
- root for input  files -> abi
- root for output files -> abo


 Symmetries : space group P1 (#  1); Bravais aP (primitive triclinic)
================================================================================
 Values of the parameters that define the memory need of the present run
     intxc =       0    ionmov =       0      iscf =       7    lmnmax =       6
     lnmax =       6     mgfft =     160  mpssoang =       3    mqgrid =    6679
     natom =      14  nloc_mem =       1    nspden =       2   nspinor =       1
    nsppol =       2      nsym =       1    n1xccc =       0    ntypat =       3
    occopt =       3   xclevel =       2
-    mband =          65        mffmem =           1         mkmem =           1
       mpw =      155830          nfft =     3110400          nkpt =           4
================================================================================
P This job should need less than                    1833.415 Mbytes of memory.
  Rough estimation (10% accuracy) of disk space for files :
_ WF disk file :   1236.446 Mbytes ; DEN or POT disk file :     47.463 Mbytes.
================================================================================

--------------------------------------------------------------------------------
------------- Echo of variables that govern the present computation ------------
--------------------------------------------------------------------------------
-
- outvars: echo of selected default values                                      
-   iomode0 =  0 , fftalg0 =312 , wfoptalg0 =  0
-
- outvars: echo of global parameters not present in the input file              
-  max_nthreads =    0
-
 -outvars: echo values of preprocessed input variables --------
            acell      9.5000000000E-01  9.5000000000E-01  9.5000000000E-01 Bohr
              amu      5.86900000E+01  1.20110000E+01  1.59994000E+01
        autoparal           1
           diemac      1.00000000E+00
           diemix      4.00000000E-01
             ecut      2.50000000E+02 Hartree
           ecutsm      5.00000000E-01 Hartree
-          fftalg         312
              ixc     -263267
              kpt      2.50000000E-01  2.50000000E-01  2.50000000E-01
                      -2.50000000E-01  2.50000000E-01  2.50000000E-01
                       2.50000000E-01 -2.50000000E-01  2.50000000E-01
                      -2.50000000E-01 -2.50000000E-01  2.50000000E-01
         kptrlatt        2    0    0      0    2    0      0    0    2
          kptrlen      1.82639464E+01
P           mkmem           1
            natom          14
            nband          65
            ngfft         144     135     160
             nkpt           4
-        np_spkpt           8
           nspden           2
           nsppol           2
            nstep          60
             nsym           1
           ntypat           3
              occ      1.000000  1.000000  1.000000  1.000000  1.000000  1.000000
                       1.000000  1.000000  1.000000  1.000000  1.000000  1.000000
                       1.000000  1.000000  1.000000  1.000000  1.000000  1.000000
                       1.000000  1.000000  1.000000  1.000000  1.000000  1.000000
                       1.000000  1.000000  1.000000  1.000000  1.000000  1.000000
                       1.000000  1.000000  1.000000  1.000000  1.000000  1.000000
                       1.000000  1.000000  1.000000  1.000000  1.000000  1.000000
                       1.000000  1.000000  1.000000  1.000000  1.000000  1.000000
                       1.000000  1.000000  0.000000  0.000000  0.000000  0.000000
                       0.000000  0.000000  0.000000  0.000000  0.000000  0.000000
                       0.000000  0.000000  0.000000  0.000000  0.000000
                       1.000000  1.000000  1.000000  1.000000  1.000000  1.000000
                       1.000000  1.000000  1.000000  1.000000  1.000000  1.000000
                       1.000000  1.000000  1.000000  1.000000  1.000000  1.000000
                       1.000000  1.000000  1.000000  1.000000  1.000000  1.000000
                       1.000000  1.000000  1.000000  1.000000  1.000000  1.000000
                       1.000000  1.000000  1.000000  1.000000  1.000000  1.000000
                       1.000000  1.000000  1.000000  1.000000  1.000000  1.000000
                       1.000000  1.000000  1.000000  1.000000  1.000000  1.000000
                       1.000000  1.000000  0.000000  0.000000  0.000000  0.000000
                       0.000000  0.000000  0.000000  0.000000  0.000000  0.000000
                       0.000000  0.000000  0.000000  0.000000  0.000000
                       1.000000  1.000000  1.000000  1.000000  1.000000  1.000000
                       1.000000  1.000000  1.000000  1.000000  1.000000  1.000000
                       1.000000  1.000000  1.000000  1.000000  1.000000  1.000000
                       1.000000  1.000000  1.000000  1.000000  1.000000  1.000000
                       1.000000  1.000000  1.000000  1.000000  1.000000  1.000000
                       1.000000  1.000000  1.000000  1.000000  1.000000  1.000000
                       1.000000  1.000000  1.000000  1.000000  1.000000  1.000000
                       1.000000  1.000000  1.000000  1.000000  1.000000  1.000000
                       1.000000  1.000000  0.000000  0.000000  0.000000  0.000000
                       0.000000  0.000000  0.000000  0.000000  0.000000  0.000000
                       0.000000  0.000000  0.000000  0.000000  0.000000
                       1.000000  1.000000  1.000000  1.000000  1.000000  1.000000
                       1.000000  1.000000  1.000000  1.000000  1.000000  1.000000
                       1.000000  1.000000  1.000000  1.000000  1.000000  1.000000
                       1.000000  1.000000  1.000000  1.000000  1.000000  1.000000
                       1.000000  1.000000  1.000000  1.000000  1.000000  1.000000
                       1.000000  1.000000  1.000000  1.000000  1.000000  1.000000
                       1.000000  1.000000  1.000000  1.000000  1.000000  1.000000
                       1.000000  1.000000  1.000000  1.000000  1.000000  1.000000
                       1.000000  1.000000  0.000000  0.000000  0.000000  0.000000
                       0.000000  0.000000  0.000000  0.000000  0.000000  0.000000
                       0.000000  0.000000  0.000000  0.000000  0.000000
                       1.000000  1.000000  1.000000  1.000000  1.000000  1.000000
                       1.000000  1.000000  1.000000  1.000000  1.000000  1.000000
                       1.000000  1.000000  1.000000  1.000000  1.000000  1.000000
                       1.000000  1.000000  1.000000  1.000000  1.000000  1.000000
                       1.000000  1.000000  1.000000  1.000000  1.000000  1.000000
                       1.000000  1.000000  1.000000  1.000000  1.000000  1.000000
                       1.000000  1.000000  1.000000  1.000000  1.000000  1.000000
                       1.000000  1.000000  1.000000  1.000000  1.000000  1.000000
                       1.000000  1.000000  0.000000  0.000000  0.000000  0.000000
                       0.000000  0.000000  0.000000  0.000000  0.000000  0.000000
                       0.000000  0.000000  0.000000  0.000000  0.000000
                       1.000000  1.000000  1.000000  1.000000  1.000000  1.000000
                       1.000000  1.000000  1.000000  1.000000  1.000000  1.000000
                       1.000000  1.000000  1.000000  1.000000  1.000000  1.000000
                       1.000000  1.000000  1.000000  1.000000  1.000000  1.000000
                       1.000000  1.000000  1.000000  1.000000  1.000000  1.000000
                       1.000000  1.000000  1.000000  1.000000  1.000000  1.000000
                       1.000000  1.000000  1.000000  1.000000  1.000000  1.000000
                       1.000000  1.000000  1.000000  1.000000  1.000000  1.000000
                       1.000000  1.000000  0.000000  0.000000  0.000000  0.000000
                       0.000000  0.000000  0.000000  0.000000  0.000000  0.000000
                       0.000000  0.000000  0.000000  0.000000  0.000000
                       1.000000  1.000000  1.000000  1.000000  1.000000  1.000000
                       1.000000  1.000000  1.000000  1.000000  1.000000  1.000000
                       1.000000  1.000000  1.000000  1.000000  1.000000  1.000000
                       1.000000  1.000000  1.000000  1.000000  1.000000  1.000000
                       1.000000  1.000000  1.000000  1.000000  1.000000  1.000000
                       1.000000  1.000000  1.000000  1.000000  1.000000  1.000000
                       1.000000  1.000000  1.000000  1.000000  1.000000  1.000000
                       1.000000  1.000000  1.000000  1.000000  1.000000  1.000000
                       1.000000  1.000000  0.000000  0.000000  0.000000  0.000000
                       0.000000  0.000000  0.000000  0.000000  0.000000  0.000000
                       0.000000  0.000000  0.000000  0.000000  0.000000
                       1.000000  1.000000  1.000000  1.000000  1.000000  1.000000
                       1.000000  1.000000  1.000000  1.000000  1.000000  1.000000
                       1.000000  1.000000  1.000000  1.000000  1.000000  1.000000
                       1.000000  1.000000  1.000000  1.000000  1.000000  1.000000
                       1.000000  1.000000  1.000000  1.000000  1.000000  1.000000
                       1.000000  1.000000  1.000000  1.000000  1.000000  1.000000
                       1.000000  1.000000  1.000000  1.000000  1.000000  1.000000
                       1.000000  1.000000  1.000000  1.000000  1.000000  1.000000
                       1.000000  1.000000  0.000000  0.000000  0.000000  0.000000
                       0.000000  0.000000  0.000000  0.000000  0.000000  0.000000
                       0.000000  0.000000  0.000000  0.000000  0.000000
           occopt           3
           prtden           0
           prteig           0
          prtkden           1
            prtwf           0
            rprim      0.0000000000E+00  1.0137047334E+01  0.0000000000E+00
                       9.6126033568E+00  0.0000000000E+00  0.0000000000E+00
                       0.0000000000E+00 -5.7455806104E+00 -9.8776109362E+00
           shiftk      5.00000000E-01  5.00000000E-01  5.00000000E-01
          spgroup           1
           spinat      0.0000000000E+00  0.0000000000E+00  1.0000000000E+00
                       0.0000000000E+00  0.0000000000E+00  1.0000000000E+00
                       0.0000000000E+00  0.0000000000E+00  1.0000000000E+00
                       0.0000000000E+00  0.0000000000E+00  1.0000000000E+00
                       0.0000000000E+00  0.0000000000E+00  1.0000000000E+00
                       0.0000000000E+00  0.0000000000E+00  1.0000000000E+00
                       0.0000000000E+00  0.0000000000E+00  1.0000000000E+00
                       0.0000000000E+00  0.0000000000E+00  1.0000000000E+00
                       0.0000000000E+00  0.0000000000E+00  1.0000000000E+00
                       0.0000000000E+00  0.0000000000E+00  1.0000000000E+00
                       0.0000000000E+00  0.0000000000E+00  1.0000000000E+00
                       0.0000000000E+00  0.0000000000E+00  1.0000000000E+00
                       0.0000000000E+00  0.0000000000E+00  1.0000000000E+00
                       0.0000000000E+00  0.0000000000E+00  1.0000000000E+00
           toldfe      1.00000000E-06 Hartree
           tsmear      1.00000000E-03 Hartree
            typat      1  1  2  2  2  2  3  3  3  3  3  3  3  3
          usekden           1
              wtk        0.25000    0.25000    0.25000    0.25000
           xangst      2.4162160405E+00 -1.4442043968E+00 -2.4828281268E+00
                       0.0000000000E+00  0.0000000000E+00  0.0000000000E+00
                       2.9984612847E+00  1.1314677296E+00 -2.0400355930E+00
                       5.8224524415E-01  2.5204075645E+00 -4.4279253379E-01
                       1.8339707964E+00  1.0762031677E+00 -2.9256206606E+00
                       4.2501868369E+00 -3.1273666725E-01 -4.5228637198E+00
                       1.4137473350E+00  2.1228426953E+00 -3.3694857762E+00
                       3.8299633755E+00 -1.3593761949E+00 -4.0789986043E+00
                       3.4186847460E+00  8.4828201970E-02 -1.5961704775E+00
                       1.0024687055E+00  3.5670470921E+00 -8.8665764934E-01
                       3.4584556620E+00  2.2159058952E+00 -1.8188156069E+00
                       1.0422396215E+00  1.4359693989E+00 -6.6401251989E-01
                       1.3739764190E+00 -8.2349979713E-03 -3.1468406467E+00
                       3.7901924595E+00  7.7170149839E-01 -4.3016437337E+00
            xcart      4.5659865945E+00 -2.7291507899E+00 -4.6918651947E+00
                       0.0000000000E+00  0.0000000000E+00  0.0000000000E+00
                       5.6662706481E+00  2.1381641371E+00 -3.8551085722E+00
                       1.1002840536E+00  4.7628800402E+00 -8.3675662256E-01
                       3.4657025408E+00  2.0337292502E+00 -5.5286218173E+00
                       8.0316891353E+00 -5.9098665281E-01 -8.5469737669E+00
                       2.6715952843E+00  4.0115913173E+00 -6.3674053256E+00
                       7.2375818788E+00 -2.5688487199E+00 -7.7081902585E+00
                       6.4603779046E+00  1.6030207007E-01 -3.0163250638E+00
                       1.8943913101E+00  6.7407421073E+00 -1.6755401309E+00
                       6.5355340440E+00  4.1874552782E+00 -3.4370633833E+00
                       1.9695474495E+00  2.7135888991E+00 -1.2548018114E+00
                       2.5964391450E+00 -1.5561890871E-02 -5.9466670061E+00
                       7.1624257394E+00  1.4583044883E+00 -8.1289285780E+00
             xred     -2.7212528442E-17  5.0000000000E-01  5.0000000000E-01
                       0.0000000000E+00  0.0000000000E+00  0.0000000000E+00
                       4.5488100000E-01  6.2048700000E-01  4.1082900000E-01
                       5.4511900000E-01  1.2048700000E-01  8.9171000000E-02
                       5.4511900000E-01  3.7951300000E-01  5.8917100000E-01
                       4.5488100000E-01  8.7951300000E-01  9.1082900000E-01
                       8.0116400000E-01  2.9255400000E-01  6.7855800000E-01
                       1.9883600000E-01  7.9255400000E-01  8.2144200000E-01
                       1.9883600000E-01  7.0744600000E-01  3.2144200000E-01
                       8.0116400000E-01  2.0744600000E-01  1.7855800000E-01
                       6.4242900000E-01  7.1567600000E-01  3.6627900000E-01
                       3.5757100000E-01  2.1567600000E-01  1.3372100000E-01
                       3.5757100000E-01  2.8432400000E-01  6.3372100000E-01
                       6.4242900000E-01  7.8432400000E-01  8.6627900000E-01
            znucl       28.00000    6.00000    8.00000

================================================================================

 chkinp: Checking input parameters for consistency.

================================================================================
== DATASET  1 ==================================================================
-   mpi_nproc: 8, omp_nthreads: -1 (-1 if OMP is not activated)


--- !DatasetInfo
iteration_state: {dtset: 1, }
dimensions: {natom: 14, nkpt: 4, mband: 65, nsppol: 2, nspinor: 1, nspden: 2, mpw: 155830, }
cutoff_energies: {ecut: 250.0, pawecutdg:  -1.0, }
electrons: {nelect:   1.00000000E+02, charge:   0.00000000E+00, occopt:   3.00000000E+00, tsmear:   1.00000000E-03, }
meta: {optdriver: 0, ionmov: 0, optcell: 0, iscf: 7, paral_kgb: 0, }
...

 Real(R)+Recip(G) space primitive vectors, cartesian coordinates (Bohr,Bohr^-1):
 R(1)=  0.0000000  9.6301950  0.0000000  G(1)=  0.0000000  0.1038401 -0.0604014
 R(2)=  9.1319732  0.0000000  0.0000000  G(2)=  0.1095054  0.0000000  0.0000000
 R(3)=  0.0000000 -5.4583016 -9.3837304  G(3)=  0.0000000  0.0000000 -0.1065674
 Unit cell volume ucvol=  8.2523042E+02 bohr^3
 Angles (23,13,12)=  9.00000000E+01  1.20185586E+02  9.00000000E+01 degrees

 getcut: wavevector=  0.0000  0.0000  0.0000  ngfft= 144 135 160
         ecut(hartree)=    250.000   => boxcut(ratio)=   2.06160

--- Pseudopotential description ------------------------------------------------
- pspini: atom type   1  psp file is ../Ni.pot
- pspatm: opening atomic psp file    ../Ni.pot
- Ni    ONCVPSP-4.0.1  r_core=   2.18101   2.18101   2.24723
- 28.00000  18.00000    200312                znucl, zion, pspdat
    8   11    2    4       600   0.00000      pspcod,pspxc,lmax,lloc,mmax,r2well
    5.99000000000000    0.00000000000000    0.00000000000000   rchrg,fchrg,qchrg
     nproj     2     2     2
     extension_switch     1
  pspatm : epsatm=   38.47316822
         --- l  ekb(1:nproj) -->
             0   -3.440917   -0.196078
             1   -5.406223   -1.725842
             2   -7.274254   -2.503385
 pspatm: atomic psp has been read  and splines computed

- pspini: atom type   2  psp file is ../C.pot
- pspatm: opening atomic psp file    ../C.pot
- C     ONCVPSP-4.0.1  r_core=   1.42727   1.38521
-  6.00000   4.00000    200312                znucl, zion, pspdat
    8   11    1    4       600   0.00000      pspcod,pspxc,lmax,lloc,mmax,r2well
    5.99000000000000    0.00000000000000    0.00000000000000   rchrg,fchrg,qchrg
     nproj     2     2
     extension_switch     1
  pspatm : epsatm=    2.26998732
         --- l  ekb(1:nproj) -->
             0    7.571912    0.889574
             1   -3.169338   -0.856835
 pspatm: atomic psp has been read  and splines computed

- pspini: atom type   3  psp file is ../O.pot
- pspatm: opening atomic psp file    ../O.pot
- O     ONCVPSP-4.0.1  r_core=   1.28926   1.47061
-  8.00000   6.00000    200312                znucl, zion, pspdat
    8   11    1    4       600   0.00000      pspcod,pspxc,lmax,lloc,mmax,r2well
    5.99000000000000    0.00000000000000    0.00000000000000   rchrg,fchrg,qchrg
     nproj     2     2
     extension_switch     1
  pspatm : epsatm=    3.44365635
         --- l  ekb(1:nproj) -->
             0    9.802940    1.339963
             1   -3.661294   -1.085684
 pspatm: atomic psp has been read  and splines computed

   1.13575537E+04                                ecore*ucvol(ha*bohr**3)
--------------------------------------------------------------------------------

_setup2: Arith. and geom. avg. npw (full set) are  155808.000  155807.998

================================================================================

--- !BeginCycle
iteration_state: {dtset: 1, }
solver: {iscf: 7, nstep: 60, nline: 4, wfoptalg: 0, }
tolerances: {toldfe: 1.00E-06, }
...

     iter   Etot(hartree)     deltaE(h) residm    vres2    magn
 ETOT  1  -456.76448195517    -4.57E+02 4.25E-01 1.77E+05 1.460
 ETOT  2  -457.78588120518    -1.02E+00 1.64E-02 3.98E+05 3.439
 ETOT  3  -458.92833800914    -1.14E+00 9.44E-03 1.28E+05 2.879
 ETOT  4  -458.92698310758     1.35E-03 7.64E-03 1.07E+05 2.974
 ETOT  5  -458.76833131157     1.59E-01 1.52E-03 1.40E+05 2.459
 ETOT  6  -459.03015495406    -2.62E-01 3.13E-03 6.79E+04 3.997
 ETOT  7  -459.04239988316    -1.22E-02 8.28E-04 5.24E+04 4.000
 ETOT  8  -459.07279747637    -3.04E-02 1.49E-03 2.17E+04 4.000
 ETOT  9  -459.08879428996    -1.60E-02 6.44E-04 6.67E+03 4.000
 ETOT 10  -459.09410444596    -5.31E-03 7.57E-04 3.18E+03 4.000
 ETOT 11  -459.09397382168     1.31E-04 3.95E-04 2.43E+03 4.000
 ETOT 12  -459.09457228126    -5.98E-04 4.01E-04 9.29E+02 4.000
 ETOT 13  -459.09492981213    -3.58E-04 2.43E-04 2.61E+02 4.000
 ETOT 14  -459.09498025543    -5.04E-05 2.23E-04 1.02E+02 4.000
 ETOT 15  -459.09499578333    -1.55E-05 2.14E-04 1.71E+01 4.000
 ETOT 16  -459.09500017067    -4.39E-06 1.37E-04 3.23E+00 4.000
 ETOT 17  -459.09500094006    -7.69E-07 1.75E-04 1.36E+00 4.000
 ETOT 18  -459.09500138336    -4.43E-07 8.84E-05 4.87E-01 4.000

 At SCF step   18, etot is converged : 
  for the second time, diff in etot=  4.433E-07 < toldfe=  1.000E-06

Result for kinetic energy density :

--------------------------------------------------------------------------------
 Total kinetic energy density [Ha/Bohr^3]
      Maximum=    1.9652E+01  at reduced coord.    0.0000    0.4889    0.5125
      Minimum=    1.5648E-03  at reduced coord.    0.0000    0.0000    0.5000
   Integrated=    2.3997E+02
 Spin up density      [Ha/Bohr^3]
      Maximum=    1.0264E+01  at reduced coord.    0.0139    0.5259    0.5063
      Minimum=    7.7523E-04  at reduced coord.    0.0000    0.0000    0.5000
   Integrated=    1.3024E+02
 Spin down density    [Ha/Bohr^3]
      Maximum=    9.8807E+00  at reduced coord.    0.0000    0.0000    0.0000
      Minimum=    7.8958E-04  at reduced coord.    0.0000    0.0000    0.5000
   Integrated=    1.0973E+02
 Magnetization (spin up - spin down) [Ha/Bohr^3]
      Maximum=    3.0187E+00  at reduced coord.    0.0208    0.0222    0.9688
      Minimum=   -2.9237E-01  at reduced coord.    0.0000    0.0000    0.0000
   Integrated=    2.0507E+01
 Relative magnetization (=zeta, between -1 and 1)
      Maximum=    3.2278E-01  at reduced coord.    0.9306    0.4074    0.5813
      Minimum=   -1.9845E-02  at reduced coord.    0.8125    0.6000    0.2063
--------------------------------------------------------------------------------

 Cartesian components of stress tensor (hartree/bohr^3)
  sigma(1 1)=  1.43783485E-02  sigma(3 2)=  1.95072200E-04
  sigma(2 2)=  1.28308165E-02  sigma(3 1)= -4.90711997E-07
  sigma(3 3)=  1.45790242E-02  sigma(2 1)=  4.59325244E-07


--- !ResultsGS
iteration_state: {dtset: 1, }
comment   : Summary of ground state results
lattice_vectors:
- [  0.0000000,   9.6301950,   0.0000000, ]
- [  9.1319732,   0.0000000,   0.0000000, ]
- [  0.0000000,  -5.4583016,  -9.3837304, ]
lattice_lengths: [   9.63019,    9.13197,   10.85576, ]
lattice_angles: [ 90.000, 120.186,  90.000, ] # degrees, (23, 13, 12)
lattice_volume:   8.2523042E+02
convergence: {deltae: -4.433E-07, res2:  4.867E-01, residm:  8.837E-05, diffor: null, }
etotal    :  -4.59095001E+02
entropy   :   0.00000000E+00
fermie    :   1.95984299E-01
cartesian_stress_tensor: # hartree/bohr^3
- [  1.43783485E-02,   4.59325244E-07,  -4.90711997E-07, ]
- [  4.59325244E-07,   1.28308165E-02,   1.95072200E-04, ]
- [ -4.90711997E-07,   1.95072200E-04,   1.45790242E-02, ]
pressure_GPa:  -4.0982E+02
xred      :
- [ -2.7213E-17,   5.0000E-01,   5.0000E-01, Ni]
- [  0.0000E+00,   0.0000E+00,   0.0000E+00, Ni]
- [  4.5488E-01,   6.2049E-01,   4.1083E-01,  C]
- [  5.4512E-01,   1.2049E-01,   8.9171E-02,  C]
- [  5.4512E-01,   3.7951E-01,   5.8917E-01,  C]
- [  4.5488E-01,   8.7951E-01,   9.1083E-01,  C]
- [  8.0116E-01,   2.9255E-01,   6.7856E-01,  O]
- [  1.9884E-01,   7.9255E-01,   8.2144E-01,  O]
- [  1.9884E-01,   7.0745E-01,   3.2144E-01,  O]
- [  8.0116E-01,   2.0745E-01,   1.7856E-01,  O]
- [  6.4243E-01,   7.1568E-01,   3.6628E-01,  O]
- [  3.5757E-01,   2.1568E-01,   1.3372E-01,  O]
- [  3.5757E-01,   2.8432E-01,   6.3372E-01,  O]
- [  6.4243E-01,   7.8432E-01,   8.6628E-01,  O]
cartesian_forces: # hartree/bohr
- [  6.54796947E-06,  -1.11483262E-05,  -4.83271997E-06, ]
- [ -1.27565654E-07,   9.00518016E-06,   4.91090866E-06, ]
- [ -2.20361035E-02,  -1.47016482E-03,  -1.67124067E-02, ]
- [ -2.20829278E-02,   1.48007828E-03,   1.67028632E-02, ]
- [  2.20373276E-02,   1.48398633E-03,   1.67110885E-02, ]
- [  2.20807215E-02,  -1.49261330E-03,  -1.67021592E-02, ]
- [ -2.83522915E-02,   6.35832564E-02,  -2.97384355E-02, ]
- [ -2.77795148E-02,  -6.35451020E-02,   2.97726850E-02, ]
- [  2.83523815E-02,  -6.35890751E-02,   2.97379363E-02, ]
- [  2.77813307E-02,   6.35488499E-02,  -2.97717143E-02, ]
- [  3.94688016E-02,   6.19201938E-02,   1.84330297E-02, ]
- [  3.89303017E-02,  -6.19648888E-02,  -1.86115064E-02, ]
- [ -3.94746705E-02,  -6.19183869E-02,  -1.84340085E-02, ]
- [ -3.89317769E-02,   6.19660093E-02,   1.86125498E-02, ]
force_length_stats: {min:   1.02580001E-05, max:   7.57096356E-02, mean:   5.11191842E-02, }
...

 Integrated electronic and magnetization densities in atomic spheres:
 ---------------------------------------------------------------------
 Radius=ratsph(iatom), smearing ratsm=  0.0000. Diff(up-dn)=approximate z local magnetic moment.
 Atom    Radius    up_density   dn_density  Total(up+dn)  Diff(up-dn)
    1   2.00000     8.943450     7.246393     16.189843     1.697057
    2   2.00000     8.943583     7.246697     16.190281     1.696886
    3   2.00000     3.135764     3.105882      6.241647     0.029882
    4   2.00000     3.137185     3.107223      6.244408     0.029962
    5   2.00000     3.135776     3.105872      6.241648     0.029904
    6   2.00000     3.137179     3.107230      6.244409     0.029949
    7   2.00000     3.423256     3.323740      6.746996     0.099516
    8   2.00000     3.423916     3.324308      6.748224     0.099607
    9   2.00000     3.423266     3.323746      6.747012     0.099521
   10   2.00000     3.423924     3.324321      6.748245     0.099604
   11   2.00000     3.430969     3.376603      6.807572     0.054365
   12   2.00000     3.431137     3.376853      6.807989     0.054284
   13   2.00000     3.430977     3.376620      6.807597     0.054357
   14   2.00000     3.431147     3.376855      6.808003     0.054292
 ---------------------------------------------------------------------
  Sum:             57.851530    53.722345    111.573875     4.129186
 Total magnetization (from the atomic spheres):             4.129186
 Total magnetization (exact up - dn):                       4.000000
================================================================================

 ----iterations are completed or convergence reached----

 Mean square residual over all n,k,spin=   39.264E-08; max=  88.371E-06
 reduced coordinates (array xred) for   14 atoms
      -0.000000000000      0.500000000000      0.500000000000
       0.000000000000      0.000000000000      0.000000000000
       0.454881000000      0.620487000000      0.410829000000
       0.545119000000      0.120487000000      0.089171000000
       0.545119000000      0.379513000000      0.589171000000
       0.454881000000      0.879513000000      0.910829000000
       0.801164000000      0.292554000000      0.678558000000
       0.198836000000      0.792554000000      0.821442000000
       0.198836000000      0.707446000000      0.321442000000
       0.801164000000      0.207446000000      0.178558000000
       0.642429000000      0.715676000000      0.366279000000
       0.357571000000      0.215676000000      0.133721000000
       0.357571000000      0.284324000000      0.633721000000
       0.642429000000      0.784324000000      0.866279000000
 rms dE/dt=  3.4628E-01; max dE/dt=  6.1237E-01; dE/dt below (all hartree)
    1       0.000107153136     -0.000059787527     -0.000105531480
    2      -0.000086929060      0.000001173281      0.000095904020
    3       0.014157766403      0.201233114915     -0.164848653502
    4      -0.014253649806      0.201660712646      0.164814547306
    5      -0.014291285116     -0.201244276049      0.164913062643
    6       0.014373949642     -0.201640548367     -0.164875024201
    7      -0.612319362941      0.258912374370      0.067999796137
    8       0.611951513840      0.253681792423     -0.067468813310
    9       0.612374983122     -0.258913179161     -0.068034904204
   10      -0.611988021726     -0.253698358768      0.067499715825
   11      -0.596303745726     -0.360428029976      0.510950340547
   12       0.596733752673     -0.355510463433     -0.512867740152
   13       0.596285930440      0.360481641454     -0.510948326742
   14      -0.596744958746      0.355523951155      0.512884984543

 cartesian coordinates (angstrom) at end:
    1      2.41621604051543    -1.44420439684667    -2.48282812681742
    2      0.00000000000000     0.00000000000000     0.00000000000000
    3      2.99846128466260     1.13146772960009    -2.04003559302455
    4      0.58224524414717     2.52040756451490    -0.44279253379287
    5      1.83397079636826     1.07620316766823    -2.92562066061029
    6      4.25018683688370    -0.31273666724658    -4.52286371984196
    7      1.41374733503390     2.12284269529865    -3.36948577615395
    8      3.82996337554933    -1.35937619487699    -4.07899860429831
    9      3.41868474599696     0.08482820196968    -1.59617047748089
   10      1.00246870548153     3.56704709214532    -0.88665764933653
   11      3.45845566202384     2.21590589523961    -1.81881560692511
   12      1.04223962150841     1.43596939887539    -0.66401251989230
   13      1.37397641900702    -0.00823499797128    -3.14684064670972
   14      3.79019245952245     0.77170149839294    -4.30164373374253

 cartesian forces (hartree/bohr) at end:
    1      0.00000654796947    -0.00001114832616    -0.00000483271997
    2     -0.00000012756565     0.00000900518016     0.00000491090866
    3     -0.02203610352300    -0.00147016481701    -0.01671240673365
    4     -0.02208292776598     0.00148007827831     0.01670286323336
    5      0.02203732755670     0.00148398633103     0.01671108853432
    6      0.02208072149909    -0.00149261329702    -0.01670215922314
    7     -0.02835229152110     0.06358325637256    -0.02973843550310
    8     -0.02777951476861    -0.06354510197752     0.02977268497994
    9      0.02835238147978    -0.06358907505215     0.02973793626294
   10      0.02778133070193     0.06354884988174    -0.02977171430543
   11      0.03946880163504     0.06192019375861     0.01843302967593
   12      0.03893030174669    -0.06196488878151    -0.01861150640076
   13     -0.03947467054954    -0.06191838689504    -0.01843400853784
   14     -0.03893177689481     0.06196600934402     0.01861254982875
 frms,max,avg= 3.4084770E-02 6.3589075E-02  -9.149E-10  2.154E-08  5.870E-08 h/b

 cartesian forces (eV/Angstrom) at end:
    1      0.00033671009982    -0.00057326993250    -0.00024850843191
    2     -0.00000655968913     0.00046306494322     0.00025252905521
    3     -1.13314190787016    -0.07559890812340    -0.85938643515189
    4     -1.13554970705137     0.07610867875663     0.85889568867712
    5      1.13320485020832     0.07630963889055     0.85931865062262
    6      1.13543625625594    -0.07675325528096    -0.85885948701883
    7     -1.45793332624256     3.26958222715719    -1.52921170967816
    8     -1.42847996388091    -3.26762024944457     1.53097288844077
    9      1.45793795210336    -3.26988143566685     1.52918603771921
   10      1.42857334291887     3.26781297441207    -1.53092297435483
   11      2.02956721179854     3.18406411632990     0.94786441681961
   12      2.00187643651075    -3.18636242662185    -0.95704205824257
   13     -2.02986900349091    -3.18397120367760    -0.94791475191892
   14     -2.00195229167057     3.18642004825818     0.95709571346258
 frms,max,avg= 1.7527092E+00 3.2698814E+00  -4.704E-08  1.108E-06  3.018E-06 e/A
 length scales=  0.950000000000  0.950000000000  0.950000000000 bohr
              =  0.502718348160  0.502718348160  0.502718348160 angstroms
 Fermi (or HOMO) energy (hartree) =   0.19598   Average Vxc (hartree)=  -0.43802
 Magnetization (Bohr magneton)=  4.00000000E+00
 Total spin up =  5.20000000E+01   Total spin down =  4.80000000E+01
 Eigenvalues (hartree) for nkpt=   4  k points, SPIN UP:
 kpt#   1, nband= 65, wtk=  0.25000, kpt=  0.2500  0.2500  0.2500 (reduced coord)
  -3.79510   -3.79503   -2.32205   -2.32197   -2.32002   -2.32000   -2.31468   -2.31457
  -0.78416   -0.77254   -0.74073   -0.73891   -0.68752   -0.68256   -0.65568   -0.65408
  -0.32439   -0.30193   -0.20588   -0.19384   -0.19152   -0.18699   -0.16214   -0.14839
  -0.13789   -0.12781   -0.11154   -0.10012   -0.07959   -0.05237   -0.04379   -0.04294
  -0.02150   -0.01445   -0.00755    0.00292    0.00748    0.02256    0.02971    0.03909
   0.05507    0.06122    0.07160    0.07927    0.08205    0.09056    0.09714    0.10399
   0.10642    0.11884    0.13660    0.14417    0.28258    0.29986    0.42952    0.45275
   0.46395    0.50124    0.52696    0.54459    0.57091    0.58938    0.61705    0.62264
   0.65239
      occupation numbers for kpt#   1
   1.00000    1.00000    1.00000    1.00000    1.00000    1.00000    1.00000    1.00000
   1.00000    1.00000    1.00000    1.00000    1.00000    1.00000    1.00000    1.00000
   1.00000    1.00000    1.00000    1.00000    1.00000    1.00000    1.00000    1.00000
   1.00000    1.00000    1.00000    1.00000    1.00000    1.00000    1.00000    1.00000
   1.00000    1.00000    1.00000    1.00000    1.00000    1.00000    1.00000    1.00000
   1.00000    1.00000    1.00000    1.00000    1.00000    1.00000    1.00000    1.00000
   1.00000    1.00000    1.00000    1.00000    0.00000    0.00000    0.00000    0.00000
   0.00000    0.00000    0.00000    0.00000    0.00000    0.00000    0.00000    0.00000
   0.00000
 prteigrs : prtvol=0 or 1, do not print more k-points.

 Eigenvalues (hartree) for nkpt=   4  k points, SPIN DOWN:
 kpt#   1, nband= 65, wtk=  0.25000, kpt=  0.2500  0.2500  0.2500 (reduced coord)
  -3.71442   -3.71423   -2.20638   -2.20633   -2.20572   -2.20561   -2.20320   -2.20307
  -0.78026   -0.76845   -0.73609   -0.73424   -0.68261   -0.67721   -0.64992   -0.64848
  -0.32127   -0.29861   -0.19929   -0.18841   -0.18099   -0.17910   -0.15475   -0.14070
  -0.13202   -0.11715   -0.10330   -0.09069   -0.07663   -0.04682   -0.02481   -0.01434
   0.00145    0.00737    0.01044    0.01986    0.03924    0.04105    0.04888    0.05736
   0.06441    0.08201    0.11051    0.11756    0.12083    0.12278    0.12684    0.13199
   0.25608    0.26453    0.27666    0.28647    0.29297    0.30455    0.43076    0.45437
   0.47440    0.50996    0.53341    0.55197    0.57841    0.59501    0.62185    0.62734
   0.65761
      occupation numbers for kpt#   1
   1.00000    1.00000    1.00000    1.00000    1.00000    1.00000    1.00000    1.00000
   1.00000    1.00000    1.00000    1.00000    1.00000    1.00000    1.00000    1.00000
   1.00000    1.00000    1.00000    1.00000    1.00000    1.00000    1.00000    1.00000
   1.00000    1.00000    1.00000    1.00000    1.00000    1.00000    1.00000    1.00000
   1.00000    1.00000    1.00000    1.00000    1.00000    1.00000    1.00000    1.00000
   1.00000    1.00000    1.00000    1.00000    1.00000    1.00000    1.00000    1.00000
   0.00000    0.00000    0.00000    0.00000    0.00000    0.00000    0.00000    0.00000
   0.00000    0.00000    0.00000    0.00000    0.00000    0.00000    0.00000    0.00000
   0.00000
 prteigrs : prtvol=0 or 1, do not print more k-points.


--- !EnergyTerms
iteration_state     : {dtset: 1, }
comment             : Components of total free energy in Hartree
kinetic             :  2.39967641924377E+02
hartree             :  1.61149313869345E+02
xc                  : -6.61291234162822E+01
Ewald energy        : -2.80073045843829E+02
psp_core            :  1.37628877705156E+01
local_psp           : -4.16933119269562E+02
non_local_psp       : -1.10839556417929E+02
internal            : -4.59095001383364E+02
'-kT*entropy'       :  4.26290451696855E-15
total_energy        : -4.59095001383364E+02
total_energy_eV     : -1.24926103108499E+04
band_energy         : -5.59211018898635E+01
...


 Cartesian components of stress tensor (hartree/bohr^3)
  sigma(1 1)=  1.43783485E-02  sigma(3 2)=  1.95072200E-04
  sigma(2 2)=  1.28308165E-02  sigma(3 1)= -4.90711997E-07
  sigma(3 3)=  1.45790242E-02  sigma(2 1)=  4.59325244E-07

-Cartesian components of stress tensor (GPa)         [Pressure= -4.0982E+02 GPa]
- sigma(1 1)=  4.23025548E+02  sigma(3 2)=  5.73922131E+00
- sigma(2 2)=  3.77495591E+02  sigma(3 1)= -1.44372430E-02
- sigma(3 3)=  4.28929627E+02  sigma(2 1)=  1.35138130E-02

== END DATASET(S) ==============================================================
================================================================================
  
 -outvars: echo values of variables after computation  --------
            acell      9.5000000000E-01  9.5000000000E-01  9.5000000000E-01 Bohr
              amu      5.86900000E+01  1.20110000E+01  1.59994000E+01
        autoparal           1
           diemac      1.00000000E+00
           diemix      4.00000000E-01
             ecut      2.50000000E+02 Hartree
           ecutsm      5.00000000E-01 Hartree
           etotal     -4.5909500138E+02
            fcart      6.5479694692E-06 -1.1148326164E-05 -4.8327199742E-06
                      -1.2756565426E-07  9.0051801596E-06  4.9109086555E-06
                      -2.2036103523E-02 -1.4701648170E-03 -1.6712406734E-02
                      -2.2082927766E-02  1.4800782783E-03  1.6702863233E-02
                       2.2037327557E-02  1.4839863310E-03  1.6711088534E-02
                       2.2080721499E-02 -1.4926132970E-03 -1.6702159223E-02
                      -2.8352291521E-02  6.3583256373E-02 -2.9738435503E-02
                      -2.7779514769E-02 -6.3545101978E-02  2.9772684980E-02
                       2.8352381480E-02 -6.3589075052E-02  2.9737936263E-02
                       2.7781330702E-02  6.3548849882E-02 -2.9771714305E-02
                       3.9468801635E-02  6.1920193759E-02  1.8433029676E-02
                       3.8930301747E-02 -6.1964888782E-02 -1.8611506401E-02
                      -3.9474670550E-02 -6.1918386895E-02 -1.8434008538E-02
                      -3.8931776895E-02  6.1966009344E-02  1.8612549829E-02
-          fftalg         312
              ixc     -263267
              kpt      2.50000000E-01  2.50000000E-01  2.50000000E-01
                      -2.50000000E-01  2.50000000E-01  2.50000000E-01
                       2.50000000E-01 -2.50000000E-01  2.50000000E-01
                      -2.50000000E-01 -2.50000000E-01  2.50000000E-01
         kptrlatt        2    0    0      0    2    0      0    0    2
          kptrlen      1.82639464E+01
P           mkmem           1
            natom          14
            nband          65
            ngfft         144     135     160
             nkpt           4
-        np_spkpt           8
           nspden           2
           nsppol           2
            nstep          60
             nsym           1
           ntypat           3
              occ      1.000000  1.000000  1.000000  1.000000  1.000000  1.000000
                       1.000000  1.000000  1.000000  1.000000  1.000000  1.000000
                       1.000000  1.000000  1.000000  1.000000  1.000000  1.000000
                       1.000000  1.000000  1.000000  1.000000  1.000000  1.000000
                       1.000000  1.000000  1.000000  1.000000  1.000000  1.000000
                       1.000000  1.000000  1.000000  1.000000  1.000000  1.000000
                       1.000000  1.000000  1.000000  1.000000  1.000000  1.000000
                       1.000000  1.000000  1.000000  1.000000  1.000000  1.000000
                       1.000000  1.000000  1.000000  1.000000  0.000000  0.000000
                       0.000000  0.000000  0.000000  0.000000  0.000000  0.000000
                       0.000000  0.000000  0.000000  0.000000  0.000000
                       1.000000  1.000000  1.000000  1.000000  1.000000  1.000000
                       1.000000  1.000000  1.000000  1.000000  1.000000  1.000000
                       1.000000  1.000000  1.000000  1.000000  1.000000  1.000000
                       1.000000  1.000000  1.000000  1.000000  1.000000  1.000000
                       1.000000  1.000000  1.000000  1.000000  1.000000  1.000000
                       1.000000  1.000000  1.000000  1.000000  1.000000  1.000000
                       1.000000  1.000000  1.000000  1.000000  1.000000  1.000000
                       1.000000  1.000000  1.000000  1.000000  1.000000  1.000000
                       1.000000  1.000000  1.000000  1.000000  0.000000  0.000000
                       0.000000  0.000000  0.000000  0.000000  0.000000  0.000000
                       0.000000  0.000000  0.000000  0.000000  0.000000
                       1.000000  1.000000  1.000000  1.000000  1.000000  1.000000
                       1.000000  1.000000  1.000000  1.000000  1.000000  1.000000
                       1.000000  1.000000  1.000000  1.000000  1.000000  1.000000
                       1.000000  1.000000  1.000000  1.000000  1.000000  1.000000
                       1.000000  1.000000  1.000000  1.000000  1.000000  1.000000
                       1.000000  1.000000  1.000000  1.000000  1.000000  1.000000
                       1.000000  1.000000  1.000000  1.000000  1.000000  1.000000
                       1.000000  1.000000  1.000000  1.000000  1.000000  1.000000
                       1.000000  1.000000  1.000000  1.000000  0.000000  0.000000
                       0.000000  0.000000  0.000000  0.000000  0.000000  0.000000
                       0.000000  0.000000  0.000000  0.000000  0.000000
                       1.000000  1.000000  1.000000  1.000000  1.000000  1.000000
                       1.000000  1.000000  1.000000  1.000000  1.000000  1.000000
                       1.000000  1.000000  1.000000  1.000000  1.000000  1.000000
                       1.000000  1.000000  1.000000  1.000000  1.000000  1.000000
                       1.000000  1.000000  1.000000  1.000000  1.000000  1.000000
                       1.000000  1.000000  1.000000  1.000000  1.000000  1.000000
                       1.000000  1.000000  1.000000  1.000000  1.000000  1.000000
                       1.000000  1.000000  1.000000  1.000000  1.000000  1.000000
                       1.000000  1.000000  1.000000  1.000000  0.000000  0.000000
                       0.000000  0.000000  0.000000  0.000000  0.000000  0.000000
                       0.000000  0.000000  0.000000  0.000000  0.000000
                       1.000000  1.000000  1.000000  1.000000  1.000000  1.000000
                       1.000000  1.000000  1.000000  1.000000  1.000000  1.000000
                       1.000000  1.000000  1.000000  1.000000  1.000000  1.000000
                       1.000000  1.000000  1.000000  1.000000  1.000000  1.000000
                       1.000000  1.000000  1.000000  1.000000  1.000000  1.000000
                       1.000000  1.000000  1.000000  1.000000  1.000000  1.000000
                       1.000000  1.000000  1.000000  1.000000  1.000000  1.000000
                       1.000000  1.000000  1.000000  1.000000  1.000000  1.000000
                       0.000000  0.000000  0.000000  0.000000  0.000000  0.000000
                       0.000000  0.000000  0.000000  0.000000  0.000000  0.000000
                       0.000000  0.000000  0.000000  0.000000  0.000000
                       1.000000  1.000000  1.000000  1.000000  1.000000  1.000000
                       1.000000  1.000000  1.000000  1.000000  1.000000  1.000000
                       1.000000  1.000000  1.000000  1.000000  1.000000  1.000000
                       1.000000  1.000000  1.000000  1.000000  1.000000  1.000000
                       1.000000  1.000000  1.000000  1.000000  1.000000  1.000000
                       1.000000  1.000000  1.000000  1.000000  1.000000  1.000000
                       1.000000  1.000000  1.000000  1.000000  1.000000  1.000000
                       1.000000  1.000000  1.000000  1.000000  1.000000  1.000000
                       0.000000  0.000000  0.000000  0.000000  0.000000  0.000000
                       0.000000  0.000000  0.000000  0.000000  0.000000  0.000000
                       0.000000  0.000000  0.000000  0.000000  0.000000
                       1.000000  1.000000  1.000000  1.000000  1.000000  1.000000
                       1.000000  1.000000  1.000000  1.000000  1.000000  1.000000
                       1.000000  1.000000  1.000000  1.000000  1.000000  1.000000
                       1.000000  1.000000  1.000000  1.000000  1.000000  1.000000
                       1.000000  1.000000  1.000000  1.000000  1.000000  1.000000
                       1.000000  1.000000  1.000000  1.000000  1.000000  1.000000
                       1.000000  1.000000  1.000000  1.000000  1.000000  1.000000
                       1.000000  1.000000  1.000000  1.000000  1.000000  1.000000
                       0.000000  0.000000  0.000000  0.000000  0.000000  0.000000
                       0.000000  0.000000  0.000000  0.000000  0.000000  0.000000
                       0.000000  0.000000  0.000000  0.000000  0.000000
                       1.000000  1.000000  1.000000  1.000000  1.000000  1.000000
                       1.000000  1.000000  1.000000  1.000000  1.000000  1.000000
                       1.000000  1.000000  1.000000  1.000000  1.000000  1.000000
                       1.000000  1.000000  1.000000  1.000000  1.000000  1.000000
                       1.000000  1.000000  1.000000  1.000000  1.000000  1.000000
                       1.000000  1.000000  1.000000  1.000000  1.000000  1.000000
                       1.000000  1.000000  1.000000  1.000000  1.000000  1.000000
                       1.000000  1.000000  1.000000  1.000000  1.000000  1.000000
                       0.000000  0.000000  0.000000  0.000000  0.000000  0.000000
                       0.000000  0.000000  0.000000  0.000000  0.000000  0.000000
                       0.000000  0.000000  0.000000  0.000000  0.000000
           occopt           3
           prtden           0
           prteig           0
          prtkden           1
            prtwf           0
            rprim      0.0000000000E+00  1.0137047334E+01  0.0000000000E+00
                       9.6126033568E+00  0.0000000000E+00  0.0000000000E+00
                       0.0000000000E+00 -5.7455806104E+00 -9.8776109362E+00
           shiftk      5.00000000E-01  5.00000000E-01  5.00000000E-01
          spgroup           1
           spinat      0.0000000000E+00  0.0000000000E+00  1.0000000000E+00
                       0.0000000000E+00  0.0000000000E+00  1.0000000000E+00
                       0.0000000000E+00  0.0000000000E+00  1.0000000000E+00
                       0.0000000000E+00  0.0000000000E+00  1.0000000000E+00
                       0.0000000000E+00  0.0000000000E+00  1.0000000000E+00
                       0.0000000000E+00  0.0000000000E+00  1.0000000000E+00
                       0.0000000000E+00  0.0000000000E+00  1.0000000000E+00
                       0.0000000000E+00  0.0000000000E+00  1.0000000000E+00
                       0.0000000000E+00  0.0000000000E+00  1.0000000000E+00
                       0.0000000000E+00  0.0000000000E+00  1.0000000000E+00
                       0.0000000000E+00  0.0000000000E+00  1.0000000000E+00
                       0.0000000000E+00  0.0000000000E+00  1.0000000000E+00
                       0.0000000000E+00  0.0000000000E+00  1.0000000000E+00
                       0.0000000000E+00  0.0000000000E+00  1.0000000000E+00
           strten      1.4378348535E-02  1.2830816496E-02  1.4579024153E-02
                       1.9507220036E-04 -4.9071199686E-07  4.5932524435E-07
           toldfe      1.00000000E-06 Hartree
           tsmear      1.00000000E-03 Hartree
            typat      1  1  2  2  2  2  3  3  3  3  3  3  3  3
          usekden           1
              wtk        0.25000    0.25000    0.25000    0.25000
           xangst      2.4162160405E+00 -1.4442043968E+00 -2.4828281268E+00
                       0.0000000000E+00  0.0000000000E+00  0.0000000000E+00
                       2.9984612847E+00  1.1314677296E+00 -2.0400355930E+00
                       5.8224524415E-01  2.5204075645E+00 -4.4279253379E-01
                       1.8339707964E+00  1.0762031677E+00 -2.9256206606E+00
                       4.2501868369E+00 -3.1273666725E-01 -4.5228637198E+00
                       1.4137473350E+00  2.1228426953E+00 -3.3694857762E+00
                       3.8299633755E+00 -1.3593761949E+00 -4.0789986043E+00
                       3.4186847460E+00  8.4828201970E-02 -1.5961704775E+00
                       1.0024687055E+00  3.5670470921E+00 -8.8665764934E-01
                       3.4584556620E+00  2.2159058952E+00 -1.8188156069E+00
                       1.0422396215E+00  1.4359693989E+00 -6.6401251989E-01
                       1.3739764190E+00 -8.2349979713E-03 -3.1468406467E+00
                       3.7901924595E+00  7.7170149839E-01 -4.3016437337E+00
            xcart      4.5659865945E+00 -2.7291507899E+00 -4.6918651947E+00
                       0.0000000000E+00  0.0000000000E+00  0.0000000000E+00
                       5.6662706481E+00  2.1381641371E+00 -3.8551085722E+00
                       1.1002840536E+00  4.7628800402E+00 -8.3675662256E-01
                       3.4657025408E+00  2.0337292502E+00 -5.5286218173E+00
                       8.0316891353E+00 -5.9098665281E-01 -8.5469737669E+00
                       2.6715952843E+00  4.0115913173E+00 -6.3674053256E+00
                       7.2375818788E+00 -2.5688487199E+00 -7.7081902585E+00
                       6.4603779046E+00  1.6030207007E-01 -3.0163250638E+00
                       1.8943913101E+00  6.7407421073E+00 -1.6755401309E+00
                       6.5355340440E+00  4.1874552782E+00 -3.4370633833E+00
                       1.9695474495E+00  2.7135888991E+00 -1.2548018114E+00
                       2.5964391450E+00 -1.5561890871E-02 -5.9466670061E+00
                       7.1624257394E+00  1.4583044883E+00 -8.1289285780E+00
             xred     -2.7212528442E-17  5.0000000000E-01  5.0000000000E-01
                       0.0000000000E+00  0.0000000000E+00  0.0000000000E+00
                       4.5488100000E-01  6.2048700000E-01  4.1082900000E-01
                       5.4511900000E-01  1.2048700000E-01  8.9171000000E-02
                       5.4511900000E-01  3.7951300000E-01  5.8917100000E-01
                       4.5488100000E-01  8.7951300000E-01  9.1082900000E-01
                       8.0116400000E-01  2.9255400000E-01  6.7855800000E-01
                       1.9883600000E-01  7.9255400000E-01  8.2144200000E-01
                       1.9883600000E-01  7.0744600000E-01  3.2144200000E-01
                       8.0116400000E-01  2.0744600000E-01  1.7855800000E-01
                       6.4242900000E-01  7.1567600000E-01  3.6627900000E-01
                       3.5757100000E-01  2.1567600000E-01  1.3372100000E-01
                       3.5757100000E-01  2.8432400000E-01  6.3372100000E-01
                       6.4242900000E-01  7.8432400000E-01  8.6627900000E-01
            znucl       28.00000    6.00000    8.00000

================================================================================


- Timing analysis has been suppressed with timopt=0



================================================================================

 Suggested references for the acknowledgment of ABINIT usage.

 The users of ABINIT have little formal obligations with respect to the ABINIT group
 (those specified in the GNU General Public License, http://www.gnu.org/copyleft/gpl.txt).
 However, it is common practice in the scientific literature,
 to acknowledge the efforts of people that have made the research possible.
 In this spirit, please find below suggested citations of work written by ABINIT developers,
 corresponding to implementations inside of ABINIT that you have used in the present run.
 Note also that it will be of great value to readers of publications presenting these results,
 to read papers enabling them to understand the theoretical formalism and details
 of the ABINIT implementation.
 For information on why they are suggested, see also https://docs.abinit.org/theory/acknowledgments.
-
- [1] Libxc: A library of exchange and correlation functionals for density functional theory.
- M.A.L. Marques, M.J.T. Oliveira, T. Burnus, Computer Physics Communications 183, 2227 (2012).
- Comment: to be cited when LibXC is used (negative value of ixc)
- Strong suggestion to cite this paper.
- DOI and bibtex: see https://docs.abinit.org/theory/bibliography/#marques2012
-
- [2] The Abinit project: Impact, environment and recent developments.
- Computer Phys. Comm. 248, 107042 (2020).
- X.Gonze, B. Amadon, G. Antonius, F.Arnardi, L.Baguet, J.-M.Beuken,
- J.Bieder, F.Bottin, J.Bouchet, E.Bousquet, N.Brouwer, F.Bruneval,
- G.Brunin, T.Cavignac, J.-B. Charraud, Wei Chen, M.Cote, S.Cottenier,
- J.Denier, G.Geneste, Ph.Ghosez, M.Giantomassi, Y.Gillet, O.Gingras,
- D.R.Hamann, G.Hautier, Xu He, N.Helbig, N.Holzwarth, Y.Jia, F.Jollet,
- W.Lafargue-Dit-Hauret, K.Lejaeghere, M.A.L.Marques, A.Martin, C.Martins,
- H.P.C. Miranda, F.Naccarato, K. Persson, G.Petretto, V.Planes, Y.Pouillon,
- S.Prokhorenko, F.Ricci, G.-M.Rignanese, A.H.Romero, M.M.Schmitt, M.Torrent,
- M.J.van Setten, B.Van Troeye, M.J.Verstraete, G.Zerah and J.W.Zwanzig
- Comment: the fifth generic paper describing the ABINIT project.
- Note that a version of this paper, that is not formatted for Computer Phys. Comm. 
- is available at https://www.abinit.org/sites/default/files/ABINIT20.pdf .
- The licence allows the authors to put it on the Web.
- DOI and bibtex: see https://docs.abinit.org/theory/bibliography/#gonze2020
-
- [3] Optimized norm-conserving Vanderbilt pseudopotentials.
- D.R. Hamann, Phys. Rev. B 88, 085117 (2013).
- Comment: Some pseudopotential generated using the ONCVPSP code were used.
- DOI and bibtex: see https://docs.abinit.org/theory/bibliography/#hamann2013
-
- [4] ABINIT: Overview, and focus on selected capabilities
- J. Chem. Phys. 152, 124102 (2020).
- A. Romero, D.C. Allan, B. Amadon, G. Antonius, T. Applencourt, L.Baguet,
- J.Bieder, F.Bottin, J.Bouchet, E.Bousquet, F.Bruneval,
- G.Brunin, D.Caliste, M.Cote,
- J.Denier, C. Dreyer, Ph.Ghosez, M.Giantomassi, Y.Gillet, O.Gingras,
- D.R.Hamann, G.Hautier, F.Jollet, G. Jomard,
- A.Martin, 
- H.P.C. Miranda, F.Naccarato, G.Petretto, N.A. Pike, V.Planes,
- S.Prokhorenko, T. Rangel, F.Ricci, G.-M.Rignanese, M.Royo, M.Stengel, M.Torrent,
- M.J.van Setten, B.Van Troeye, M.J.Verstraete, J.Wiktor, J.W.Zwanziger, and X.Gonze.
- Comment: a global overview of ABINIT, with focus on selected capabilities .
- Note that a version of this paper, that is not formatted for J. Chem. Phys 
- is available at https://www.abinit.org/sites/default/files/ABINIT20_JPC.pdf .
- The licence allows the authors to put it on the Web.
- DOI and bibtex: see https://docs.abinit.org/theory/bibliography/#romero2020
-
- [5] Recent developments in the ABINIT software package.
- Computer Phys. Comm. 205, 106 (2016).
- X.Gonze, F.Jollet, F.Abreu Araujo, D.Adams, B.Amadon, T.Applencourt,
- C.Audouze, J.-M.Beuken, J.Bieder, A.Bokhanchuk, E.Bousquet, F.Bruneval
- D.Caliste, M.Cote, F.Dahm, F.Da Pieve, M.Delaveau, M.Di Gennaro,
- B.Dorado, C.Espejo, G.Geneste, L.Genovese, A.Gerossier, M.Giantomassi,
- Y.Gillet, D.R.Hamann, L.He, G.Jomard, J.Laflamme Janssen, S.Le Roux,
- A.Levitt, A.Lherbier, F.Liu, I.Lukacevic, A.Martin, C.Martins,
- M.J.T.Oliveira, S.Ponce, Y.Pouillon, T.Rangel, G.-M.Rignanese,
- A.H.Romero, B.Rousseau, O.Rubel, A.A.Shukri, M.Stankovski, M.Torrent,
- M.J.Van Setten, B.Van Troeye, M.J.Verstraete, D.Waroquier, J.Wiktor,
- B.Xu, A.Zhou, J.W.Zwanziger.
- Comment: the fourth generic paper describing the ABINIT project.
- Note that a version of this paper, that is not formatted for Computer Phys. Comm. 
- is available at https://www.abinit.org/sites/default/files/ABINIT16.pdf .
- The licence allows the authors to put it on the Web.
- DOI and bibtex: see https://docs.abinit.org/theory/bibliography/#gonze2016
-
- Proc.   0 individual time (sec): cpu=       4004.5  wall=       4019.8

================================================================================

 Calculation completed.
.Delivered   0 WARNINGs and   0 COMMENTs to log file.
+Overall time at end (sec) : cpu=      32075.7  wall=      32164.0
