
     Program PWSCF v.7.1 starts on  6Apr2023 at 14:57:31 

     This program is part of the open-source Quantum ESPRESSO suite
     for quantum simulation of materials; please cite
         "P. Giannozzi et al., J. Phys.:Condens. Matter 21 395502 (2009);
         "P. Giannozzi et al., J. Phys.:Condens. Matter 29 465901 (2017);
         "P. Giannozzi et al., J. Chem. Phys. 152 154105 (2020);
          URL http://www.quantum-espresso.org", 
     in publications or presentations arising from this work. More details at
     http://www.quantum-espresso.org/quote

     Parallel version (MPI), running on   960 processors

     MPI processes distributed on    80 nodes
     360572 MiB available memory on the printing compute node when the environment starts

     Reading input from pw.inp

     Current dimensions of program PWSCF are:
     Max number of different atomic species (ntypx) = 10
     Max number of k-points (npk) =  40000
     Max angular momentum in pseudopotentials (lmaxx) =  4
     Message from routine cell_base_init:
     DEPRECATED: use true lattice parameter, not A to a.u. conversion factor

     IMPORTANT: XC functional enforced from input :
     Exchange-correlation= SCAN
                           (   0   0   0   0   0 263 267)
     Any further DFT definition will be discarded
     Please, verify this is what you really want


     gamma-point specific algorithms are used

     K-points division:     npool     =       2
     R & G space division:  proc/nbgrp/npool/nimage =     480
     WARNING: too many processors for an effective parallelization!
     wavefunctions fft division:  task group distribution
                                  #TG    x Z-proc =      10     48
     Subspace diagonalization in iterative solution of the eigenvalue problem:
     one sub-group per band group will be used
     scalapack distributed-memory algorithm (size of sub-group: 16* 16 procs)


     Parallelization info
     --------------------
     sticks:   dense  smooth     PW     G-vecs:    dense   smooth      PW
     Min          57      57     13                 7296     7296     902
     Max          60      60     16                 7326     7326     926
     Sum       27919   27919   6971              3510819  3510819  438905

     Using Pencil Decomposition



     bravais-lattice index     =            0
     lattice parameter (alat)  =       1.0000  a.u.
     unit-cell volume          =   25987.7199 (a.u.)^3
     number of atoms/cell      =          376
     number of atomic types    =            3
     number of electrons       =      2690.00
     number of Kohn-Sham states=         1619
     kinetic-energy cutoff     =     100.0000  Ry
     charge density cutoff     =     400.0000  Ry
     scf convergence threshold =      1.0E+01
     mixing beta               =       0.5000
     number of iterations used =            8  TF        mixing
     Exchange-correlation= SCAN
                           (   0   0   0   0   0 263 267)

     celldm(1)=   1.000000  celldm(2)=   0.000000  celldm(3)=   0.000000
     celldm(4)=   0.000000  celldm(5)=   0.000000  celldm(6)=   0.000000

     crystal axes: (cart. coord. in units of alat)
               a(1) = (   0.000000  30.411142   0.000000 )  
               a(2) = (  28.837810   0.000000   0.000000 )  
               a(3) = (   0.000000 -17.236742 -29.632833 )  

     reciprocal axes: (cart. coord. in units 2 pi/alat)
               b(1) = (  0.000000  0.032883 -0.019127 )  
               b(2) = (  0.034677 -0.000000  0.000000 )  
               b(3) = (  0.000000  0.000000 -0.033746 )  


     PseudoPot. # 1 for Ni read from file:
     .././Ni.UPF
     MD5 check sum: 84bdea402ee3d845217826375fc904d9
     Pseudo is Norm-conserving, Zval = 18.0
     Generated using ONCVPSP code by D. R. Hamann
     Using radial grid of 1370 points,  6 beta functions with: 
                l(1) =   0
                l(2) =   0
                l(3) =   1
                l(4) =   1
                l(5) =   2
                l(6) =   2

     PseudoPot. # 2 for C  read from file:
     .././C.UPF
     MD5 check sum: ef557580a2ad6409059df8753128406d
     Pseudo is Norm-conserving, Zval =  4.0
     Generated using ONCVPSP code by D. R. Hamann
     Using radial grid of 1246 points,  4 beta functions with: 
                l(1) =   0
                l(2) =   0
                l(3) =   1
                l(4) =   1

     PseudoPot. # 3 for O  read from file:
     .././O.UPF
     MD5 check sum: 7bd5a973d633692278b8b7f329492a4b
     Pseudo is Norm-conserving, Zval =  6.0
     Generated using ONCVPSP code by D. R. Hamann
     Using radial grid of  934 points,  4 beta functions with: 
                l(1) =   0
                l(2) =   0
                l(3) =   1
                l(4) =   1

     atomic species   valence    mass     pseudopotential
        Ni            18.00    59.00000     Ni( 1.00)
        C              4.00    12.00000     C ( 1.00)
        O              6.00    16.00000     O ( 1.00)

     Starting magnetic structure 
     atomic species   magnetization
        Ni           1.000
        C            0.000
        O            0.000

     No symmetry found


                                    s                        frac. trans.

      isym =  1     identity                                     

 cryst.   s( 1) = (     1          0          0      )
                  (     0          1          0      )
                  (     0          0          1      )

 cart.    s( 1) = (  1.0000000  0.0000000  0.0000000 )
                  (  0.0000000  1.0000000 -0.0000000 )
                  (  0.0000000  0.0000000  1.0000000 )


   Cartesian axes

     site n.     atom                  positions (alat units)
         1           Ni  tau(   1) = (   4.8063017  -2.8727903  -4.9388055  )
         2           Ni  tau(   2) = (   0.0000000   0.0000000   0.0000000  )
         3           Ni  tau(   3) = (  14.4189050  -2.8727903  -4.9388055  )
         4           Ni  tau(   4) = (   9.6126034   0.0000000   0.0000000  )
         5           Ni  tau(   5) = (  24.0315084  -2.8727903  -4.9388055  )
         6           Ni  tau(   6) = (  19.2252067   0.0000000   0.0000000  )
         7           Ni  tau(   7) = (   4.8063017   7.2642570  -4.9388055  )
         8           Ni  tau(   8) = (   0.0000000  10.1370473   0.0000000  )
         9           Ni  tau(   9) = (  14.4189050   7.2642570  -4.9388055  )
        10           Ni  tau(  10) = (   9.6126034  10.1370473   0.0000000  )
        11           Ni  tau(  11) = (  24.0315084   7.2642570  -4.9388055  )
        12           Ni  tau(  12) = (  19.2252067  10.1370473   0.0000000  )
        13           Ni  tau(  13) = (   4.8063017  17.4013044  -4.9388055  )
        14           Ni  tau(  14) = (   0.0000000  20.2740947   0.0000000  )
        15           Ni  tau(  15) = (  14.4189050  17.4013044  -4.9388055  )
        16           Ni  tau(  16) = (   9.6126034  20.2740947   0.0000000  )
        17           Ni  tau(  17) = (  24.0315084  17.4013044  -4.9388055  )
        18           Ni  tau(  18) = (  19.2252067  20.2740947   0.0000000  )
        19           Ni  tau(  19) = (   4.8063017  -8.6183709 -14.8164164  )
        20           Ni  tau(  20) = (   0.0000000  -5.7455806  -9.8776109  )
        21           Ni  tau(  21) = (  14.4189050  -8.6183709 -14.8164164  )
        22           Ni  tau(  22) = (   9.6126034  -5.7455806  -9.8776109  )
        23           Ni  tau(  23) = (  24.0315084  -8.6183709 -14.8164164  )
        24           Ni  tau(  24) = (  19.2252067  -5.7455806  -9.8776109  )
        25           Ni  tau(  25) = (   4.8063017   1.5186764 -14.8164164  )
        26           Ni  tau(  26) = (   0.0000000   4.3914667  -9.8776109  )
        27           Ni  tau(  27) = (  14.4189050   1.5186764 -14.8164164  )
        28           Ni  tau(  28) = (   9.6126034   4.3914667  -9.8776109  )
        29           Ni  tau(  29) = (  24.0315084   1.5186764 -14.8164164  )
        30           Ni  tau(  30) = (  19.2252067   4.3914667  -9.8776109  )
        31           Ni  tau(  31) = (   4.8063017  11.6557238 -14.8164164  )
        32           Ni  tau(  32) = (   0.0000000  14.5285141  -9.8776109  )
        33           Ni  tau(  33) = (  14.4189050  11.6557238 -14.8164164  )
        34           Ni  tau(  34) = (   9.6126034  14.5285141  -9.8776109  )
        35           Ni  tau(  35) = (  24.0315084  11.6557238 -14.8164164  )
        36           Ni  tau(  36) = (  19.2252067  14.5285141  -9.8776109  )
        37           Ni  tau(  37) = (   4.8063017 -14.3639515 -24.6940273  )
        38           Ni  tau(  38) = (   0.0000000 -11.4911612 -19.7552219  )
        39           Ni  tau(  39) = (  14.4189050 -14.3639515 -24.6940273  )
        40           Ni  tau(  40) = (   9.6126034 -11.4911612 -19.7552219  )
        41           Ni  tau(  41) = (  24.0315084 -14.3639515 -24.6940273  )
        42           Ni  tau(  42) = (  19.2252067 -11.4911612 -19.7552219  )
        43           Ni  tau(  43) = (   4.8063017  -4.2269042 -24.6940273  )
        44           Ni  tau(  44) = (   0.0000000  -1.3541139 -19.7552219  )
        45           Ni  tau(  45) = (  14.4189050  -4.2269042 -24.6940273  )
        46           Ni  tau(  46) = (   9.6126034  -1.3541139 -19.7552219  )
        47           Ni  tau(  47) = (  24.0315084  -4.2269042 -24.6940273  )
        48           Ni  tau(  48) = (  19.2252067  -1.3541139 -19.7552219  )
        49           Ni  tau(  49) = (   4.8063017   5.9101431 -24.6940273  )
        50           Ni  tau(  50) = (   0.0000000   8.7829334 -19.7552219  )
        51           Ni  tau(  51) = (  14.4189050   5.9101431 -24.6940273  )
        52           Ni  tau(  52) = (   9.6126034   8.7829334 -19.7552219  )
        53           Ni  tau(  53) = (  24.0315084   5.9101431 -24.6940273  )
        54           Ni  tau(  54) = (  19.2252067   8.7829334 -19.7552219  )
        55           C   tau(  55) = (   5.9644954   2.2506991  -4.0580090  )
        56           C   tau(  56) = (   1.1581937   5.0135579  -0.8807964  )
        57           C   tau(  57) = (   8.4544096  -0.6220912  -8.9968145  )
        58           C   tau(  58) = (  15.5770988   2.2506991  -4.0580090  )
        59           C   tau(  59) = (  10.7707971   5.0135579  -0.8807964  )
        60           C   tau(  60) = (  13.2607113   2.1407676  -5.8196019  )
        61           C   tau(  61) = (  18.0670130  -0.6220912  -8.9968145  )
        62           C   tau(  62) = (  25.1897021   2.2506991  -4.0580090  )
        63           C   tau(  63) = (  20.3834005   5.0135579  -0.8807964  )
        64           C   tau(  64) = (  22.8733147   2.1407676  -5.8196019  )
        65           C   tau(  65) = (  27.6796163  -0.6220912  -8.9968145  )
        66           C   tau(  66) = (   5.9644954  12.3877464  -4.0580090  )
        67           C   tau(  67) = (   1.1581937  15.1506053  -0.8807964  )
        68           C   tau(  68) = (   3.6481079  12.2778150  -5.8196019  )
        69           C   tau(  69) = (   8.4544096   9.5149561  -8.9968145  )
        70           C   tau(  70) = (  15.5770988  12.3877464  -4.0580090  )
        71           C   tau(  71) = (  10.7707971  15.1506053  -0.8807964  )
        72           C   tau(  72) = (  13.2607113  12.2778150  -5.8196019  )
        73           C   tau(  73) = (  18.0670130   9.5149561  -8.9968145  )
        74           C   tau(  74) = (  25.1897021  12.3877464  -4.0580090  )
        75           C   tau(  75) = (  20.3834005  15.1506053  -0.8807964  )
        76           C   tau(  76) = (  22.8733147  12.2778150  -5.8196019  )
        77           C   tau(  77) = (  27.6796163   9.5149561  -8.9968145  )
        78           C   tau(  78) = (   5.9644954  22.5247938  -4.0580090  )
        79           C   tau(  79) = (   1.1581937  25.2876526  -0.8807964  )
        80           C   tau(  80) = (   3.6481079  22.4148623  -5.8196019  )
        81           C   tau(  81) = (   8.4544096  19.6520035  -8.9968145  )
        82           C   tau(  82) = (  15.5770988  22.5247938  -4.0580090  )
        83           C   tau(  83) = (  10.7707971  25.2876526  -0.8807964  )
        84           C   tau(  84) = (  13.2607113  22.4148623  -5.8196019  )
        85           C   tau(  85) = (  18.0670130  19.6520035  -8.9968145  )
        86           C   tau(  86) = (  25.1897021  22.5247938  -4.0580090  )
        87           C   tau(  87) = (  20.3834005  25.2876526  -0.8807964  )
        88           C   tau(  88) = (  22.8733147  22.4148623  -5.8196019  )
        89           C   tau(  89) = (  27.6796163  19.6520035  -8.9968145  )
        90           C   tau(  90) = (   5.9644954  -3.4948815 -13.9356200  )
        91           C   tau(  91) = (   1.1581937  -0.7320227 -10.7584074  )
        92           C   tau(  92) = (   3.6481079  -3.6048130 -15.6972128  )
        93           C   tau(  93) = (   8.4544096  -6.3676718 -18.8744254  )
        94           C   tau(  94) = (  15.5770988  -3.4948815 -13.9356200  )
        95           C   tau(  95) = (  10.7707971  -0.7320227 -10.7584074  )
        96           C   tau(  96) = (  13.2607113  -3.6048130 -15.6972128  )
        97           C   tau(  97) = (  18.0670130  -6.3676718 -18.8744254  )
        98           C   tau(  98) = (  25.1897021  -3.4948815 -13.9356200  )
        99           C   tau(  99) = (  20.3834005  -0.7320227 -10.7584074  )
       100           C   tau( 100) = (  22.8733147  -3.6048130 -15.6972128  )
       101           C   tau( 101) = (  27.6796163  -6.3676718 -18.8744254  )
       102           C   tau( 102) = (   5.9644954   6.6421658 -13.9356200  )
       103           C   tau( 103) = (   1.1581937   9.4050247 -10.7584074  )
       104           C   tau( 104) = (   3.6481079   6.5322344 -15.6972128  )
       105           C   tau( 105) = (   8.4544096   3.7693755 -18.8744254  )
       106           C   tau( 106) = (  15.5770988   6.6421658 -13.9356200  )
       107           C   tau( 107) = (  10.7707971   9.4050247 -10.7584074  )
       108           C   tau( 108) = (  13.2607113   6.5322344 -15.6972128  )
       109           C   tau( 109) = (  18.0670130   3.7693755 -18.8744254  )
       110           C   tau( 110) = (  25.1897021   6.6421658 -13.9356200  )
       111           C   tau( 111) = (  20.3834005   9.4050247 -10.7584074  )
       112           C   tau( 112) = (  22.8733147   6.5322344 -15.6972128  )
       113           C   tau( 113) = (  27.6796163   3.7693755 -18.8744254  )
       114           C   tau( 114) = (   5.9644954  16.7792131 -13.9356200  )
       115           C   tau( 115) = (   1.1581937  19.5420720 -10.7584074  )
       116           C   tau( 116) = (   3.6481079  16.6692817 -15.6972128  )
       117           C   tau( 117) = (   8.4544096  13.9064228 -18.8744254  )
       118           C   tau( 118) = (  15.5770988  16.7792131 -13.9356200  )
       119           C   tau( 119) = (  10.7707971  19.5420720 -10.7584074  )
       120           C   tau( 120) = (  13.2607113  16.6692817 -15.6972128  )
       121           C   tau( 121) = (  18.0670130  13.9064228 -18.8744254  )
       122           C   tau( 122) = (  25.1897021  16.7792131 -13.9356200  )
       123           C   tau( 123) = (  20.3834005  19.5420720 -10.7584074  )
       124           C   tau( 124) = (  22.8733147  16.6692817 -15.6972128  )
       125           C   tau( 125) = (  27.6796163  13.9064228 -18.8744254  )
       126           C   tau( 126) = (   5.9644954  -9.2404621 -23.8132309  )
       127           C   tau( 127) = (   1.1581937  -6.4776033 -20.6360183  )
       128           C   tau( 128) = (   3.6481079  -9.3503936 -25.5748238  )
       129           C   tau( 129) = (   8.4544096 -12.1132524 -28.7520364  )
       130           C   tau( 130) = (  15.5770988  -9.2404621 -23.8132309  )
       131           C   tau( 131) = (  10.7707971  -6.4776033 -20.6360183  )
       132           C   tau( 132) = (  13.2607113  -9.3503936 -25.5748238  )
       133           C   tau( 133) = (  18.0670130 -12.1132524 -28.7520364  )
       134           C   tau( 134) = (  25.1897021  -9.2404621 -23.8132309  )
       135           C   tau( 135) = (  20.3834005  -6.4776033 -20.6360183  )
       136           C   tau( 136) = (  22.8733147  -9.3503936 -25.5748238  )
       137           C   tau( 137) = (  27.6796163 -12.1132524 -28.7520364  )
       138           C   tau( 138) = (   5.9644954   0.8965852 -23.8132309  )
       139           C   tau( 139) = (   1.1581937   3.6594441 -20.6360183  )
       140           C   tau( 140) = (   3.6481079   0.7866537 -25.5748238  )
       141           C   tau( 141) = (   8.4544096  -1.9762051 -28.7520364  )
       142           C   tau( 142) = (  15.5770988   0.8965852 -23.8132309  )
       143           C   tau( 143) = (  10.7707971   3.6594441 -20.6360183  )
       144           C   tau( 144) = (  13.2607113   0.7866537 -25.5748238  )
       145           C   tau( 145) = (  18.0670130  -1.9762051 -28.7520364  )
       146           C   tau( 146) = (  25.1897021   0.8965852 -23.8132309  )
       147           C   tau( 147) = (  20.3834005   3.6594441 -20.6360183  )
       148           C   tau( 148) = (  22.8733147   0.7866537 -25.5748238  )
       149           C   tau( 149) = (  27.6796163  -1.9762051 -28.7520364  )
       150           C   tau( 150) = (   5.9644954  11.0336325 -23.8132309  )
       151           C   tau( 151) = (   1.1581937  13.7964914 -20.6360183  )
       152           C   tau( 152) = (   3.6481079  10.9237011 -25.5748238  )
       153           C   tau( 153) = (   8.4544096   8.1608422 -28.7520364  )
       154           C   tau( 154) = (  15.5770988  11.0336325 -23.8132309  )
       155           C   tau( 155) = (  10.7707971  13.7964914 -20.6360183  )
       156           C   tau( 156) = (  13.2607113  10.9237011 -25.5748238  )
       157           C   tau( 157) = (  18.0670130   8.1608422 -28.7520364  )
       158           C   tau( 158) = (  25.1897021  11.0336325 -23.8132309  )
       159           C   tau( 159) = (  20.3834005  13.7964914 -20.6360183  )
       160           C   tau( 160) = (  22.8733147  10.9237011 -25.5748238  )
       161           C   tau( 161) = (  27.6796163   8.1608422 -28.7520364  )
       162           O   tau( 162) = (   2.8122056   4.2227277  -6.7025319  )
       163           O   tau( 163) = (   7.6185072  -2.7040513  -8.1138845  )
       164           O   tau( 164) = (   6.8003978   0.1687390  -3.1750790  )
       165           O   tau( 165) = (   1.9940961   7.0955180  -1.7637265  )
       166           O   tau( 166) = (   6.8795095   4.4078477  -3.6179615  )
       167           O   tau( 167) = (   2.0732078   2.8564094  -1.3208440  )
       168           O   tau( 168) = (   2.7330938  -0.0163809  -6.2596495  )
       169           O   tau( 169) = (   7.5393955   1.5350574  -8.5567669  )
       170           O   tau( 170) = (  12.4248089   4.2227277  -6.7025319  )
       171           O   tau( 171) = (  17.2311106  -2.7040513  -8.1138845  )
       172           O   tau( 172) = (  16.4130012   0.1687390  -3.1750790  )
       173           O   tau( 173) = (  11.6066995   7.0955180  -1.7637265  )
       174           O   tau( 174) = (  16.4921129   4.4078477  -3.6179615  )
       175           O   tau( 175) = (  11.6858112   2.8564094  -1.3208440  )
       176           O   tau( 176) = (  12.3456972  -0.0163809  -6.2596495  )
       177           O   tau( 177) = (  17.1519989   1.5350574  -8.5567669  )
       178           O   tau( 178) = (  22.0374123   4.2227277  -6.7025319  )
       179           O   tau( 179) = (  26.8437140  -2.7040513  -8.1138845  )
       180           O   tau( 180) = (  26.0256045   0.1687390  -3.1750790  )
       181           O   tau( 181) = (  21.2193028   7.0955180  -1.7637265  )
       182           O   tau( 182) = (  26.1047162   4.4078477  -3.6179615  )
       183           O   tau( 183) = (  21.2984146   2.8564094  -1.3208440  )
       184           O   tau( 184) = (  21.9583006  -0.0163809  -6.2596495  )
       185           O   tau( 185) = (  26.7646022   1.5350574  -8.5567669  )
       186           O   tau( 186) = (   2.8122056  14.3597750  -6.7025319  )
       187           O   tau( 187) = (   7.6185072   7.4329960  -8.1138845  )
       188           O   tau( 188) = (   6.8003978  10.3057864  -3.1750790  )
       189           O   tau( 189) = (   1.9940961  17.2325653  -1.7637265  )
       190           O   tau( 190) = (   6.8795095  14.5448950  -3.6179615  )
       191           O   tau( 191) = (   2.0732078  12.9934567  -1.3208440  )
       192           O   tau( 192) = (   2.7330938  10.1206664  -6.2596495  )
       193           O   tau( 193) = (   7.5393955  11.6721047  -8.5567669  )
       194           O   tau( 194) = (  12.4248089  14.3597750  -6.7025319  )
       195           O   tau( 195) = (  17.2311106   7.4329960  -8.1138845  )
       196           O   tau( 196) = (  16.4130012  10.3057864  -3.1750790  )
       197           O   tau( 197) = (  11.6066995  17.2325653  -1.7637265  )
       198           O   tau( 198) = (  16.4921129  14.5448950  -3.6179615  )
       199           O   tau( 199) = (  11.6858112  12.9934567  -1.3208440  )
       200           O   tau( 200) = (  12.3456972  10.1206664  -6.2596495  )
       201           O   tau( 201) = (  17.1519989  11.6721047  -8.5567669  )
       202           O   tau( 202) = (  22.0374123  14.3597750  -6.7025319  )
       203           O   tau( 203) = (  26.8437140   7.4329960  -8.1138845  )
       204           O   tau( 204) = (  26.0256045  10.3057864  -3.1750790  )
       205           O   tau( 205) = (  21.2193028  17.2325653  -1.7637265  )
       206           O   tau( 206) = (  26.1047162  14.5448950  -3.6179615  )
       207           O   tau( 207) = (  21.2984146  12.9934567  -1.3208440  )
       208           O   tau( 208) = (  21.9583006  10.1206664  -6.2596495  )
       209           O   tau( 209) = (  26.7646022  11.6721047  -8.5567669  )
       210           O   tau( 210) = (   2.8122056  24.4968224  -6.7025319  )
       211           O   tau( 211) = (   7.6185072  17.5700434  -8.1138845  )
       212           O   tau( 212) = (   6.8003978  20.4428337  -3.1750790  )
       213           O   tau( 213) = (   1.9940961  27.3696127  -1.7637265  )
       214           O   tau( 214) = (   6.8795095  24.6819423  -3.6179615  )
       215           O   tau( 215) = (   2.0732078  23.1305040  -1.3208440  )
       216           O   tau( 216) = (   2.7330938  20.2577137  -6.2596495  )
       217           O   tau( 217) = (   7.5393955  21.8091520  -8.5567669  )
       218           O   tau( 218) = (  12.4248089  24.4968224  -6.7025319  )
       219           O   tau( 219) = (  17.2311106  17.5700434  -8.1138845  )
       220           O   tau( 220) = (  16.4130012  20.4428337  -3.1750790  )
       221           O   tau( 221) = (  11.6066995  27.3696127  -1.7637265  )
       222           O   tau( 222) = (  16.4921129  24.6819423  -3.6179615  )
       223           O   tau( 223) = (  11.6858112  23.1305040  -1.3208440  )
       224           O   tau( 224) = (  12.3456972  20.2577137  -6.2596495  )
       225           O   tau( 225) = (  17.1519989  21.8091520  -8.5567669  )
       226           O   tau( 226) = (  22.0374123  24.4968224  -6.7025319  )
       227           O   tau( 227) = (  26.8437140  17.5700434  -8.1138845  )
       228           O   tau( 228) = (  26.0256045  20.4428337  -3.1750790  )
       229           O   tau( 229) = (  21.2193028  27.3696127  -1.7637265  )
       230           O   tau( 230) = (  26.1047162  24.6819423  -3.6179615  )
       231           O   tau( 231) = (  21.2984146  23.1305040  -1.3208440  )
       232           O   tau( 232) = (  21.9583006  20.2577137  -6.2596495  )
       233           O   tau( 233) = (  26.7646022  21.8091520  -8.5567669  )
       234           O   tau( 234) = (   2.8122056  -1.5228529 -16.5801429  )
       235           O   tau( 235) = (   7.6185072  -8.4496319 -17.9914954  )
       236           O   tau( 236) = (   6.8003978  -5.5768416 -13.0526900  )
       237           O   tau( 237) = (   1.9940961   1.3499374 -11.6413374  )
       238           O   tau( 238) = (   6.8795095  -1.3377329 -13.4955724  )
       239           O   tau( 239) = (   2.0732078  -2.8891712 -11.1984549  )
       240           O   tau( 240) = (   2.7330938  -5.7619615 -16.1372604  )
       241           O   tau( 241) = (   7.5393955  -4.2105233 -18.4343779  )
       242           O   tau( 242) = (  12.4248089  -1.5228529 -16.5801429  )
       243           O   tau( 243) = (  17.2311106  -8.4496319 -17.9914954  )
       244           O   tau( 244) = (  16.4130012  -5.5768416 -13.0526900  )
       245           O   tau( 245) = (  11.6066995   1.3499374 -11.6413374  )
       246           O   tau( 246) = (  16.4921129  -1.3377329 -13.4955724  )
       247           O   tau( 247) = (  11.6858112  -2.8891712 -11.1984549  )
       248           O   tau( 248) = (  12.3456972  -5.7619615 -16.1372604  )
       249           O   tau( 249) = (  17.1519989  -4.2105233 -18.4343779  )
       250           O   tau( 250) = (  22.0374123  -1.5228529 -16.5801429  )
       251           O   tau( 251) = (  26.8437140  -8.4496319 -17.9914954  )
       252           O   tau( 252) = (  26.0256045  -5.5768416 -13.0526900  )
       253           O   tau( 253) = (  21.2193028   1.3499374 -11.6413374  )
       254           O   tau( 254) = (  26.1047162  -1.3377329 -13.4955724  )
       255           O   tau( 255) = (  21.2984146  -2.8891712 -11.1984549  )
       256           O   tau( 256) = (  21.9583006  -5.7619615 -16.1372604  )
       257           O   tau( 257) = (  26.7646022  -4.2105233 -18.4343779  )
       258           O   tau( 258) = (   2.8122056   8.6141944 -16.5801429  )
       259           O   tau( 259) = (   7.6185072   1.6874154 -17.9914954  )
       260           O   tau( 260) = (   6.8003978   4.5602057 -13.0526900  )
       261           O   tau( 261) = (   1.9940961  11.4869847 -11.6413374  )
       262           O   tau( 262) = (   6.8795095   8.7993144 -13.4955724  )
       263           O   tau( 263) = (   2.0732078   7.2478761 -11.1984549  )
       264           O   tau( 264) = (   2.7330938   4.3750858 -16.1372604  )
       265           O   tau( 265) = (   7.5393955   5.9265241 -18.4343779  )
       266           O   tau( 266) = (  12.4248089   8.6141944 -16.5801429  )
       267           O   tau( 267) = (  17.2311106   1.6874154 -17.9914954  )
       268           O   tau( 268) = (  16.4130012   4.5602057 -13.0526900  )
       269           O   tau( 269) = (  11.6066995  11.4869847 -11.6413374  )
       270           O   tau( 270) = (  16.4921129   8.7993144 -13.4955724  )
       271           O   tau( 271) = (  11.6858112   7.2478761 -11.1984549  )
       272           O   tau( 272) = (  12.3456972   4.3750858 -16.1372604  )
       273           O   tau( 273) = (  17.1519989   5.9265241 -18.4343779  )
       274           O   tau( 274) = (  22.0374123   8.6141944 -16.5801429  )
       275           O   tau( 275) = (  26.8437140   1.6874154 -17.9914954  )
       276           O   tau( 276) = (  26.0256045   4.5602057 -13.0526900  )
       277           O   tau( 277) = (  21.2193028  11.4869847 -11.6413374  )
       278           O   tau( 278) = (  26.1047162   8.7993144 -13.4955724  )
       279           O   tau( 279) = (  21.2984146   7.2478761 -11.1984549  )
       280           O   tau( 280) = (  21.9583006   4.3750858 -16.1372604  )
       281           O   tau( 281) = (  26.7646022   5.9265241 -18.4343779  )
       282           O   tau( 282) = (   2.8122056  18.7512418 -16.5801429  )
       283           O   tau( 283) = (   7.6185072  11.8244628 -17.9914954  )
       284           O   tau( 284) = (   6.8003978  14.6972531 -13.0526900  )
       285           O   tau( 285) = (   1.9940961  21.6240321 -11.6413374  )
       286           O   tau( 286) = (   6.8795095  18.9363617 -13.4955724  )
       287           O   tau( 287) = (   2.0732078  17.3849234 -11.1984549  )
       288           O   tau( 288) = (   2.7330938  14.5121331 -16.1372604  )
       289           O   tau( 289) = (   7.5393955  16.0635714 -18.4343779  )
       290           O   tau( 290) = (  12.4248089  18.7512418 -16.5801429  )
       291           O   tau( 291) = (  17.2311106  11.8244628 -17.9914954  )
       292           O   tau( 292) = (  16.4130012  14.6972531 -13.0526900  )
       293           O   tau( 293) = (  11.6066995  21.6240321 -11.6413374  )
       294           O   tau( 294) = (  16.4921129  18.9363617 -13.4955724  )
       295           O   tau( 295) = (  11.6858112  17.3849234 -11.1984549  )
       296           O   tau( 296) = (  12.3456972  14.5121331 -16.1372604  )
       297           O   tau( 297) = (  17.1519989  16.0635714 -18.4343779  )
       298           O   tau( 298) = (  22.0374123  18.7512418 -16.5801429  )
       299           O   tau( 299) = (  26.8437140  11.8244628 -17.9914954  )
       300           O   tau( 300) = (  26.0256045  14.6972531 -13.0526900  )
       301           O   tau( 301) = (  21.2193028  21.6240321 -11.6413374  )
       302           O   tau( 302) = (  26.1047162  18.9363617 -13.4955724  )
       303           O   tau( 303) = (  21.2984146  17.3849234 -11.1984549  )
       304           O   tau( 304) = (  21.9583006  14.5121331 -16.1372604  )
       305           O   tau( 305) = (  26.7646022  16.0635714 -18.4343779  )
       306           O   tau( 306) = (   2.8122056  -7.2684335 -26.4577538  )
       307           O   tau( 307) = (   7.6185072 -14.1952125 -27.8691064  )
       308           O   tau( 308) = (   6.8003978 -11.3224222 -22.9303009  )
       309           O   tau( 309) = (   1.9940961  -4.3956432 -21.5189483  )
       310           O   tau( 310) = (   6.8795095  -7.0833136 -23.3731833  )
       311           O   tau( 311) = (   2.0732078  -8.6347519 -21.0760659  )
       312           O   tau( 312) = (   2.7330938 -11.5075422 -26.0148714  )
       313           O   tau( 313) = (   7.5393955  -9.9561039 -28.3119888  )
       314           O   tau( 314) = (  12.4248089  -7.2684335 -26.4577538  )
       315           O   tau( 315) = (  17.2311106 -14.1952125 -27.8691064  )
       316           O   tau( 316) = (  16.4130012 -11.3224222 -22.9303009  )
       317           O   tau( 317) = (  11.6066995  -4.3956432 -21.5189483  )
       318           O   tau( 318) = (  16.4921129  -7.0833136 -23.3731833  )
       319           O   tau( 319) = (  11.6858112  -8.6347519 -21.0760659  )
       320           O   tau( 320) = (  12.3456972 -11.5075422 -26.0148714  )
       321           O   tau( 321) = (  17.1519989  -9.9561039 -28.3119888  )
       322           O   tau( 322) = (  22.0374123  -7.2684335 -26.4577538  )
       323           O   tau( 323) = (  26.8437140 -14.1952125 -27.8691064  )
       324           O   tau( 324) = (  26.0256045 -11.3224222 -22.9303009  )
       325           O   tau( 325) = (  21.2193028  -4.3956432 -21.5189483  )
       326           O   tau( 326) = (  26.1047162  -7.0833136 -23.3731833  )
       327           O   tau( 327) = (  21.2984146  -8.6347519 -21.0760659  )
       328           O   tau( 328) = (  21.9583006 -11.5075422 -26.0148714  )
       329           O   tau( 329) = (  26.7646022  -9.9561039 -28.3119888  )
       330           O   tau( 330) = (   2.8122056   2.8686138 -26.4577538  )
       331           O   tau( 331) = (   7.6185072  -4.0581652 -27.8691064  )
       332           O   tau( 332) = (   6.8003978  -1.1853749 -22.9303009  )
       333           O   tau( 333) = (   1.9940961   5.7414041 -21.5189483  )
       334           O   tau( 334) = (   6.8795095   3.0537338 -23.3731833  )
       335           O   tau( 335) = (   2.0732078   1.5022955 -21.0760659  )
       336           O   tau( 336) = (   2.7330938  -1.3704948 -26.0148714  )
       337           O   tau( 337) = (   7.5393955   0.1809435 -28.3119888  )
       338           O   tau( 338) = (  12.4248089   2.8686138 -26.4577538  )
       339           O   tau( 339) = (  17.2311106  -4.0581652 -27.8691064  )
       340           O   tau( 340) = (  16.4130012  -1.1853749 -22.9303009  )
       341           O   tau( 341) = (  11.6066995   5.7414041 -21.5189483  )
       342           O   tau( 342) = (  16.4921129   3.0537338 -23.3731833  )
       343           O   tau( 343) = (  11.6858112   1.5022955 -21.0760659  )
       344           O   tau( 344) = (  12.3456972  -1.3704948 -26.0148714  )
       345           O   tau( 345) = (  17.1519989   0.1809435 -28.3119888  )
       346           O   tau( 346) = (  22.0374123   2.8686138 -26.4577538  )
       347           O   tau( 347) = (  26.8437140  -4.0581652 -27.8691064  )
       348           O   tau( 348) = (  26.0256045  -1.1853749 -22.9303009  )
       349           O   tau( 349) = (  21.2193028   5.7414041 -21.5189483  )
       350           O   tau( 350) = (  26.1047162   3.0537338 -23.3731833  )
       351           O   tau( 351) = (  21.2984146   1.5022955 -21.0760659  )
       352           O   tau( 352) = (  21.9583006  -1.3704948 -26.0148714  )
       353           O   tau( 353) = (  26.7646022   0.1809435 -28.3119888  )
       354           O   tau( 354) = (   2.8122056  13.0056611 -26.4577538  )
       355           O   tau( 355) = (   7.6185072   6.0788822 -27.8691064  )
       356           O   tau( 356) = (   6.8003978   8.9516725 -22.9303009  )
       357           O   tau( 357) = (   1.9940961  15.8784515 -21.5189483  )
       358           O   tau( 358) = (   6.8795095  13.1907811 -23.3731833  )
       359           O   tau( 359) = (   2.0732078  11.6393428 -21.0760659  )
       360           O   tau( 360) = (   2.7330938   8.7665525 -26.0148714  )
       361           O   tau( 361) = (   7.5393955  10.3179908 -28.3119888  )
       362           O   tau( 362) = (  12.4248089  13.0056611 -26.4577538  )
       363           O   tau( 363) = (  17.2311106   6.0788822 -27.8691064  )
       364           O   tau( 364) = (  16.4130012   8.9516725 -22.9303009  )
       365           O   tau( 365) = (  11.6066995  15.8784515 -21.5189483  )
       366           O   tau( 366) = (  16.4921129  13.1907811 -23.3731833  )
       367           O   tau( 367) = (  11.6858112  11.6393428 -21.0760659  )
       368           O   tau( 368) = (  12.3456972   8.7665525 -26.0148714  )
       369           O   tau( 369) = (  17.1519989  10.3179908 -28.3119888  )
       370           O   tau( 370) = (  22.0374123  13.0056611 -26.4577538  )
       371           O   tau( 371) = (  26.8437140   6.0788822 -27.8691064  )
       372           O   tau( 372) = (  26.0256045   8.9516725 -22.9303009  )
       373           O   tau( 373) = (  21.2193028  15.8784515 -21.5189483  )
       374           O   tau( 374) = (  26.1047162  13.1907811 -23.3731833  )
       375           O   tau( 375) = (  21.9583006   8.7665525 -26.0148714  )
       376           O   tau( 376) = (  26.7646022  10.3179908 -28.3119888  )

   Crystallographic axes

     site n.     atom                  positions (cryst. coord.)
         1           Ni  tau(   1) = (  0.0000000  0.1666667  0.1666667  )
         2           Ni  tau(   2) = (  0.0000000  0.0000000  0.0000000  )
         3           Ni  tau(   3) = (  0.0000000  0.5000000  0.1666667  )
         4           Ni  tau(   4) = (  0.0000000  0.3333333  0.0000000  )
         5           Ni  tau(   5) = (  0.0000000  0.8333333  0.1666667  )
         6           Ni  tau(   6) = (  0.0000000  0.6666667  0.0000000  )
         7           Ni  tau(   7) = (  0.3333333  0.1666667  0.1666667  )
         8           Ni  tau(   8) = (  0.3333333  0.0000000  0.0000000  )
         9           Ni  tau(   9) = (  0.3333333  0.5000000  0.1666667  )
        10           Ni  tau(  10) = (  0.3333333  0.3333333  0.0000000  )
        11           Ni  tau(  11) = (  0.3333333  0.8333333  0.1666667  )
        12           Ni  tau(  12) = (  0.3333333  0.6666667  0.0000000  )
        13           Ni  tau(  13) = (  0.6666667  0.1666667  0.1666667  )
        14           Ni  tau(  14) = (  0.6666667  0.0000000  0.0000000  )
        15           Ni  tau(  15) = (  0.6666667  0.5000000  0.1666667  )
        16           Ni  tau(  16) = (  0.6666667  0.3333333  0.0000000  )
        17           Ni  tau(  17) = (  0.6666667  0.8333333  0.1666667  )
        18           Ni  tau(  18) = (  0.6666667  0.6666667  0.0000000  )
        19           Ni  tau(  19) = (  0.0000000  0.1666667  0.5000000  )
        20           Ni  tau(  20) = (  0.0000000  0.0000000  0.3333333  )
        21           Ni  tau(  21) = (  0.0000000  0.5000000  0.5000000  )
        22           Ni  tau(  22) = (  0.0000000  0.3333333  0.3333333  )
        23           Ni  tau(  23) = (  0.0000000  0.8333333  0.5000000  )
        24           Ni  tau(  24) = (  0.0000000  0.6666667  0.3333333  )
        25           Ni  tau(  25) = (  0.3333333  0.1666667  0.5000000  )
        26           Ni  tau(  26) = (  0.3333333  0.0000000  0.3333333  )
        27           Ni  tau(  27) = (  0.3333333  0.5000000  0.5000000  )
        28           Ni  tau(  28) = (  0.3333333  0.3333333  0.3333333  )
        29           Ni  tau(  29) = (  0.3333333  0.8333333  0.5000000  )
        30           Ni  tau(  30) = (  0.3333333  0.6666667  0.3333333  )
        31           Ni  tau(  31) = (  0.6666667  0.1666667  0.5000000  )
        32           Ni  tau(  32) = (  0.6666667  0.0000000  0.3333333  )
        33           Ni  tau(  33) = (  0.6666667  0.5000000  0.5000000  )
        34           Ni  tau(  34) = (  0.6666667  0.3333333  0.3333333  )
        35           Ni  tau(  35) = (  0.6666667  0.8333333  0.5000000  )
        36           Ni  tau(  36) = (  0.6666667  0.6666667  0.3333333  )
        37           Ni  tau(  37) = (  0.0000000  0.1666667  0.8333333  )
        38           Ni  tau(  38) = (  0.0000000  0.0000000  0.6666667  )
        39           Ni  tau(  39) = (  0.0000000  0.5000000  0.8333333  )
        40           Ni  tau(  40) = (  0.0000000  0.3333333  0.6666667  )
        41           Ni  tau(  41) = (  0.0000000  0.8333333  0.8333333  )
        42           Ni  tau(  42) = (  0.0000000  0.6666667  0.6666667  )
        43           Ni  tau(  43) = (  0.3333333  0.1666667  0.8333333  )
        44           Ni  tau(  44) = (  0.3333333  0.0000000  0.6666667  )
        45           Ni  tau(  45) = (  0.3333333  0.5000000  0.8333333  )
        46           Ni  tau(  46) = (  0.3333333  0.3333333  0.6666667  )
        47           Ni  tau(  47) = (  0.3333333  0.8333333  0.8333333  )
        48           Ni  tau(  48) = (  0.3333333  0.6666667  0.6666667  )
        49           Ni  tau(  49) = (  0.6666667  0.1666667  0.8333333  )
        50           Ni  tau(  50) = (  0.6666667  0.0000000  0.6666667  )
        51           Ni  tau(  51) = (  0.6666667  0.5000000  0.8333333  )
        52           Ni  tau(  52) = (  0.6666667  0.3333333  0.6666667  )
        53           Ni  tau(  53) = (  0.6666667  0.8333333  0.8333333  )
        54           Ni  tau(  54) = (  0.6666667  0.6666667  0.6666667  )
        55           C   tau(  55) = (  0.1516270  0.2068290  0.1369430  )
        56           C   tau(  56) = (  0.1817063  0.0401623  0.0297237  )
        57           C   tau(  57) = (  0.1516270  0.2931710  0.3036097  )
        58           C   tau(  58) = (  0.1516270  0.5401623  0.1369430  )
        59           C   tau(  59) = (  0.1817063  0.3734957  0.0297237  )
        60           C   tau(  60) = (  0.1817063  0.4598377  0.1963903  )
        61           C   tau(  61) = (  0.1516270  0.6265043  0.3036097  )
        62           C   tau(  62) = (  0.1516270  0.8734957  0.1369430  )
        63           C   tau(  63) = (  0.1817063  0.7068290  0.0297237  )
        64           C   tau(  64) = (  0.1817063  0.7931710  0.1963903  )
        65           C   tau(  65) = (  0.1516270  0.9598377  0.3036097  )
        66           C   tau(  66) = (  0.4849603  0.2068290  0.1369430  )
        67           C   tau(  67) = (  0.5150397  0.0401623  0.0297237  )
        68           C   tau(  68) = (  0.5150397  0.1265043  0.1963903  )
        69           C   tau(  69) = (  0.4849603  0.2931710  0.3036097  )
        70           C   tau(  70) = (  0.4849603  0.5401623  0.1369430  )
        71           C   tau(  71) = (  0.5150397  0.3734957  0.0297237  )
        72           C   tau(  72) = (  0.5150397  0.4598377  0.1963903  )
        73           C   tau(  73) = (  0.4849603  0.6265043  0.3036097  )
        74           C   tau(  74) = (  0.4849603  0.8734957  0.1369430  )
        75           C   tau(  75) = (  0.5150397  0.7068290  0.0297237  )
        76           C   tau(  76) = (  0.5150397  0.7931710  0.1963903  )
        77           C   tau(  77) = (  0.4849603  0.9598377  0.3036097  )
        78           C   tau(  78) = (  0.8182937  0.2068290  0.1369430  )
        79           C   tau(  79) = (  0.8483730  0.0401623  0.0297237  )
        80           C   tau(  80) = (  0.8483730  0.1265043  0.1963903  )
        81           C   tau(  81) = (  0.8182937  0.2931710  0.3036097  )
        82           C   tau(  82) = (  0.8182937  0.5401623  0.1369430  )
        83           C   tau(  83) = (  0.8483730  0.3734957  0.0297237  )
        84           C   tau(  84) = (  0.8483730  0.4598377  0.1963903  )
        85           C   tau(  85) = (  0.8182937  0.6265043  0.3036097  )
        86           C   tau(  86) = (  0.8182937  0.8734957  0.1369430  )
        87           C   tau(  87) = (  0.8483730  0.7068290  0.0297237  )
        88           C   tau(  88) = (  0.8483730  0.7931710  0.1963903  )
        89           C   tau(  89) = (  0.8182937  0.9598377  0.3036097  )
        90           C   tau(  90) = (  0.1516270  0.2068290  0.4702763  )
        91           C   tau(  91) = (  0.1817063  0.0401623  0.3630570  )
        92           C   tau(  92) = (  0.1817063  0.1265043  0.5297237  )
        93           C   tau(  93) = (  0.1516270  0.2931710  0.6369430  )
        94           C   tau(  94) = (  0.1516270  0.5401623  0.4702763  )
        95           C   tau(  95) = (  0.1817063  0.3734957  0.3630570  )
        96           C   tau(  96) = (  0.1817063  0.4598377  0.5297237  )
        97           C   tau(  97) = (  0.1516270  0.6265043  0.6369430  )
        98           C   tau(  98) = (  0.1516270  0.8734957  0.4702763  )
        99           C   tau(  99) = (  0.1817063  0.7068290  0.3630570  )
       100           C   tau( 100) = (  0.1817063  0.7931710  0.5297237  )
       101           C   tau( 101) = (  0.1516270  0.9598377  0.6369430  )
       102           C   tau( 102) = (  0.4849603  0.2068290  0.4702763  )
       103           C   tau( 103) = (  0.5150397  0.0401623  0.3630570  )
       104           C   tau( 104) = (  0.5150397  0.1265043  0.5297237  )
       105           C   tau( 105) = (  0.4849603  0.2931710  0.6369430  )
       106           C   tau( 106) = (  0.4849603  0.5401623  0.4702763  )
       107           C   tau( 107) = (  0.5150397  0.3734957  0.3630570  )
       108           C   tau( 108) = (  0.5150397  0.4598377  0.5297237  )
       109           C   tau( 109) = (  0.4849603  0.6265043  0.6369430  )
       110           C   tau( 110) = (  0.4849603  0.8734957  0.4702763  )
       111           C   tau( 111) = (  0.5150397  0.7068290  0.3630570  )
       112           C   tau( 112) = (  0.5150397  0.7931710  0.5297237  )
       113           C   tau( 113) = (  0.4849603  0.9598377  0.6369430  )
       114           C   tau( 114) = (  0.8182937  0.2068290  0.4702763  )
       115           C   tau( 115) = (  0.8483730  0.0401623  0.3630570  )
       116           C   tau( 116) = (  0.8483730  0.1265043  0.5297237  )
       117           C   tau( 117) = (  0.8182937  0.2931710  0.6369430  )
       118           C   tau( 118) = (  0.8182937  0.5401623  0.4702763  )
       119           C   tau( 119) = (  0.8483730  0.3734957  0.3630570  )
       120           C   tau( 120) = (  0.8483730  0.4598377  0.5297237  )
       121           C   tau( 121) = (  0.8182937  0.6265043  0.6369430  )
       122           C   tau( 122) = (  0.8182937  0.8734957  0.4702763  )
       123           C   tau( 123) = (  0.8483730  0.7068290  0.3630570  )
       124           C   tau( 124) = (  0.8483730  0.7931710  0.5297237  )
       125           C   tau( 125) = (  0.8182937  0.9598377  0.6369430  )
       126           C   tau( 126) = (  0.1516270  0.2068290  0.8036097  )
       127           C   tau( 127) = (  0.1817063  0.0401623  0.6963903  )
       128           C   tau( 128) = (  0.1817063  0.1265043  0.8630570  )
       129           C   tau( 129) = (  0.1516270  0.2931710  0.9702763  )
       130           C   tau( 130) = (  0.1516270  0.5401623  0.8036097  )
       131           C   tau( 131) = (  0.1817063  0.3734957  0.6963903  )
       132           C   tau( 132) = (  0.1817063  0.4598377  0.8630570  )
       133           C   tau( 133) = (  0.1516270  0.6265043  0.9702763  )
       134           C   tau( 134) = (  0.1516270  0.8734957  0.8036097  )
       135           C   tau( 135) = (  0.1817063  0.7068290  0.6963903  )
       136           C   tau( 136) = (  0.1817063  0.7931710  0.8630570  )
       137           C   tau( 137) = (  0.1516270  0.9598377  0.9702763  )
       138           C   tau( 138) = (  0.4849603  0.2068290  0.8036097  )
       139           C   tau( 139) = (  0.5150397  0.0401623  0.6963903  )
       140           C   tau( 140) = (  0.5150397  0.1265043  0.8630570  )
       141           C   tau( 141) = (  0.4849603  0.2931710  0.9702763  )
       142           C   tau( 142) = (  0.4849603  0.5401623  0.8036097  )
       143           C   tau( 143) = (  0.5150397  0.3734957  0.6963903  )
       144           C   tau( 144) = (  0.5150397  0.4598377  0.8630570  )
       145           C   tau( 145) = (  0.4849603  0.6265043  0.9702763  )
       146           C   tau( 146) = (  0.4849603  0.8734957  0.8036097  )
       147           C   tau( 147) = (  0.5150397  0.7068290  0.6963903  )
       148           C   tau( 148) = (  0.5150397  0.7931710  0.8630570  )
       149           C   tau( 149) = (  0.4849603  0.9598377  0.9702763  )
       150           C   tau( 150) = (  0.8182937  0.2068290  0.8036097  )
       151           C   tau( 151) = (  0.8483730  0.0401623  0.6963903  )
       152           C   tau( 152) = (  0.8483730  0.1265043  0.8630570  )
       153           C   tau( 153) = (  0.8182937  0.2931710  0.9702763  )
       154           C   tau( 154) = (  0.8182937  0.5401623  0.8036097  )
       155           C   tau( 155) = (  0.8483730  0.3734957  0.6963903  )
       156           C   tau( 156) = (  0.8483730  0.4598377  0.8630570  )
       157           C   tau( 157) = (  0.8182937  0.6265043  0.9702763  )
       158           C   tau( 158) = (  0.8182937  0.8734957  0.8036097  )
       159           C   tau( 159) = (  0.8483730  0.7068290  0.6963903  )
       160           C   tau( 160) = (  0.8483730  0.7931710  0.8630570  )
       161           C   tau( 161) = (  0.8182937  0.9598377  0.9702763  )
       162           O   tau( 162) = (  0.2670547  0.0975180  0.2261860  )
       163           O   tau( 163) = (  0.0662787  0.2641847  0.2738140  )
       164           O   tau( 164) = (  0.0662787  0.2358153  0.1071473  )
       165           O   tau( 165) = (  0.2670547  0.0691487  0.0595193  )
       166           O   tau( 166) = (  0.2141430  0.2385587  0.1220930  )
       167           O   tau( 167) = (  0.1191903  0.0718920  0.0445737  )
       168           O   tau( 168) = (  0.1191903  0.0947747  0.2112403  )
       169           O   tau( 169) = (  0.2141430  0.2614413  0.2887597  )
       170           O   tau( 170) = (  0.2670547  0.4308513  0.2261860  )
       171           O   tau( 171) = (  0.0662787  0.5975180  0.2738140  )
       172           O   tau( 172) = (  0.0662787  0.5691487  0.1071473  )
       173           O   tau( 173) = (  0.2670547  0.4024820  0.0595193  )
       174           O   tau( 174) = (  0.2141430  0.5718920  0.1220930  )
       175           O   tau( 175) = (  0.1191903  0.4052253  0.0445737  )
       176           O   tau( 176) = (  0.1191903  0.4281080  0.2112403  )
       177           O   tau( 177) = (  0.2141430  0.5947747  0.2887597  )
       178           O   tau( 178) = (  0.2670547  0.7641847  0.2261860  )
       179           O   tau( 179) = (  0.0662787  0.9308513  0.2738140  )
       180           O   tau( 180) = (  0.0662787  0.9024820  0.1071473  )
       181           O   tau( 181) = (  0.2670547  0.7358153  0.0595193  )
       182           O   tau( 182) = (  0.2141430  0.9052253  0.1220930  )
       183           O   tau( 183) = (  0.1191903  0.7385587  0.0445737  )
       184           O   tau( 184) = (  0.1191903  0.7614413  0.2112403  )
       185           O   tau( 185) = (  0.2141430  0.9281080  0.2887597  )
       186           O   tau( 186) = (  0.6003880  0.0975180  0.2261860  )
       187           O   tau( 187) = (  0.3996120  0.2641847  0.2738140  )
       188           O   tau( 188) = (  0.3996120  0.2358153  0.1071473  )
       189           O   tau( 189) = (  0.6003880  0.0691487  0.0595193  )
       190           O   tau( 190) = (  0.5474763  0.2385587  0.1220930  )
       191           O   tau( 191) = (  0.4525237  0.0718920  0.0445737  )
       192           O   tau( 192) = (  0.4525237  0.0947747  0.2112403  )
       193           O   tau( 193) = (  0.5474763  0.2614413  0.2887597  )
       194           O   tau( 194) = (  0.6003880  0.4308513  0.2261860  )
       195           O   tau( 195) = (  0.3996120  0.5975180  0.2738140  )
       196           O   tau( 196) = (  0.3996120  0.5691487  0.1071473  )
       197           O   tau( 197) = (  0.6003880  0.4024820  0.0595193  )
       198           O   tau( 198) = (  0.5474763  0.5718920  0.1220930  )
       199           O   tau( 199) = (  0.4525237  0.4052253  0.0445737  )
       200           O   tau( 200) = (  0.4525237  0.4281080  0.2112403  )
       201           O   tau( 201) = (  0.5474763  0.5947747  0.2887597  )
       202           O   tau( 202) = (  0.6003880  0.7641847  0.2261860  )
       203           O   tau( 203) = (  0.3996120  0.9308513  0.2738140  )
       204           O   tau( 204) = (  0.3996120  0.9024820  0.1071473  )
       205           O   tau( 205) = (  0.6003880  0.7358153  0.0595193  )
       206           O   tau( 206) = (  0.5474763  0.9052253  0.1220930  )
       207           O   tau( 207) = (  0.4525237  0.7385587  0.0445737  )
       208           O   tau( 208) = (  0.4525237  0.7614413  0.2112403  )
       209           O   tau( 209) = (  0.5474763  0.9281080  0.2887597  )
       210           O   tau( 210) = (  0.9337213  0.0975180  0.2261860  )
       211           O   tau( 211) = (  0.7329453  0.2641847  0.2738140  )
       212           O   tau( 212) = (  0.7329453  0.2358153  0.1071473  )
       213           O   tau( 213) = (  0.9337213  0.0691487  0.0595193  )
       214           O   tau( 214) = (  0.8808097  0.2385587  0.1220930  )
       215           O   tau( 215) = (  0.7858570  0.0718920  0.0445737  )
       216           O   tau( 216) = (  0.7858570  0.0947747  0.2112403  )
       217           O   tau( 217) = (  0.8808097  0.2614413  0.2887597  )
       218           O   tau( 218) = (  0.9337213  0.4308513  0.2261860  )
       219           O   tau( 219) = (  0.7329453  0.5975180  0.2738140  )
       220           O   tau( 220) = (  0.7329453  0.5691487  0.1071473  )
       221           O   tau( 221) = (  0.9337213  0.4024820  0.0595193  )
       222           O   tau( 222) = (  0.8808097  0.5718920  0.1220930  )
       223           O   tau( 223) = (  0.7858570  0.4052253  0.0445737  )
       224           O   tau( 224) = (  0.7858570  0.4281080  0.2112403  )
       225           O   tau( 225) = (  0.8808097  0.5947747  0.2887597  )
       226           O   tau( 226) = (  0.9337213  0.7641847  0.2261860  )
       227           O   tau( 227) = (  0.7329453  0.9308513  0.2738140  )
       228           O   tau( 228) = (  0.7329453  0.9024820  0.1071473  )
       229           O   tau( 229) = (  0.9337213  0.7358153  0.0595193  )
       230           O   tau( 230) = (  0.8808097  0.9052253  0.1220930  )
       231           O   tau( 231) = (  0.7858570  0.7385587  0.0445737  )
       232           O   tau( 232) = (  0.7858570  0.7614413  0.2112403  )
       233           O   tau( 233) = (  0.8808097  0.9281080  0.2887597  )
       234           O   tau( 234) = (  0.2670547  0.0975180  0.5595193  )
       235           O   tau( 235) = (  0.0662787  0.2641847  0.6071473  )
       236           O   tau( 236) = (  0.0662787  0.2358153  0.4404807  )
       237           O   tau( 237) = (  0.2670547  0.0691487  0.3928527  )
       238           O   tau( 238) = (  0.2141430  0.2385587  0.4554263  )
       239           O   tau( 239) = (  0.1191903  0.0718920  0.3779070  )
       240           O   tau( 240) = (  0.1191903  0.0947747  0.5445737  )
       241           O   tau( 241) = (  0.2141430  0.2614413  0.6220930  )
       242           O   tau( 242) = (  0.2670547  0.4308513  0.5595193  )
       243           O   tau( 243) = (  0.0662787  0.5975180  0.6071473  )
       244           O   tau( 244) = (  0.0662787  0.5691487  0.4404807  )
       245           O   tau( 245) = (  0.2670547  0.4024820  0.3928527  )
       246           O   tau( 246) = (  0.2141430  0.5718920  0.4554263  )
       247           O   tau( 247) = (  0.1191903  0.4052253  0.3779070  )
       248           O   tau( 248) = (  0.1191903  0.4281080  0.5445737  )
       249           O   tau( 249) = (  0.2141430  0.5947747  0.6220930  )
       250           O   tau( 250) = (  0.2670547  0.7641847  0.5595193  )
       251           O   tau( 251) = (  0.0662787  0.9308513  0.6071473  )
       252           O   tau( 252) = (  0.0662787  0.9024820  0.4404807  )
       253           O   tau( 253) = (  0.2670547  0.7358153  0.3928527  )
       254           O   tau( 254) = (  0.2141430  0.9052253  0.4554263  )
       255           O   tau( 255) = (  0.1191903  0.7385587  0.3779070  )
       256           O   tau( 256) = (  0.1191903  0.7614413  0.5445737  )
       257           O   tau( 257) = (  0.2141430  0.9281080  0.6220930  )
       258           O   tau( 258) = (  0.6003880  0.0975180  0.5595193  )
       259           O   tau( 259) = (  0.3996120  0.2641847  0.6071473  )
       260           O   tau( 260) = (  0.3996120  0.2358153  0.4404807  )
       261           O   tau( 261) = (  0.6003880  0.0691487  0.3928527  )
       262           O   tau( 262) = (  0.5474763  0.2385587  0.4554263  )
       263           O   tau( 263) = (  0.4525237  0.0718920  0.3779070  )
       264           O   tau( 264) = (  0.4525237  0.0947747  0.5445737  )
       265           O   tau( 265) = (  0.5474763  0.2614413  0.6220930  )
       266           O   tau( 266) = (  0.6003880  0.4308513  0.5595193  )
       267           O   tau( 267) = (  0.3996120  0.5975180  0.6071473  )
       268           O   tau( 268) = (  0.3996120  0.5691487  0.4404807  )
       269           O   tau( 269) = (  0.6003880  0.4024820  0.3928527  )
       270           O   tau( 270) = (  0.5474763  0.5718920  0.4554263  )
       271           O   tau( 271) = (  0.4525237  0.4052253  0.3779070  )
       272           O   tau( 272) = (  0.4525237  0.4281080  0.5445737  )
       273           O   tau( 273) = (  0.5474763  0.5947747  0.6220930  )
       274           O   tau( 274) = (  0.6003880  0.7641847  0.5595193  )
       275           O   tau( 275) = (  0.3996120  0.9308513  0.6071473  )
       276           O   tau( 276) = (  0.3996120  0.9024820  0.4404807  )
       277           O   tau( 277) = (  0.6003880  0.7358153  0.3928527  )
       278           O   tau( 278) = (  0.5474763  0.9052253  0.4554263  )
       279           O   tau( 279) = (  0.4525237  0.7385587  0.3779070  )
       280           O   tau( 280) = (  0.4525237  0.7614413  0.5445737  )
       281           O   tau( 281) = (  0.5474763  0.9281080  0.6220930  )
       282           O   tau( 282) = (  0.9337213  0.0975180  0.5595193  )
       283           O   tau( 283) = (  0.7329453  0.2641847  0.6071473  )
       284           O   tau( 284) = (  0.7329453  0.2358153  0.4404807  )
       285           O   tau( 285) = (  0.9337213  0.0691487  0.3928527  )
       286           O   tau( 286) = (  0.8808097  0.2385587  0.4554263  )
       287           O   tau( 287) = (  0.7858570  0.0718920  0.3779070  )
       288           O   tau( 288) = (  0.7858570  0.0947747  0.5445737  )
       289           O   tau( 289) = (  0.8808097  0.2614413  0.6220930  )
       290           O   tau( 290) = (  0.9337213  0.4308513  0.5595193  )
       291           O   tau( 291) = (  0.7329453  0.5975180  0.6071473  )
       292           O   tau( 292) = (  0.7329453  0.5691487  0.4404807  )
       293           O   tau( 293) = (  0.9337213  0.4024820  0.3928527  )
       294           O   tau( 294) = (  0.8808097  0.5718920  0.4554263  )
       295           O   tau( 295) = (  0.7858570  0.4052253  0.3779070  )
       296           O   tau( 296) = (  0.7858570  0.4281080  0.5445737  )
       297           O   tau( 297) = (  0.8808097  0.5947747  0.6220930  )
       298           O   tau( 298) = (  0.9337213  0.7641847  0.5595193  )
       299           O   tau( 299) = (  0.7329453  0.9308513  0.6071473  )
       300           O   tau( 300) = (  0.7329453  0.9024820  0.4404807  )
       301           O   tau( 301) = (  0.9337213  0.7358153  0.3928527  )
       302           O   tau( 302) = (  0.8808097  0.9052253  0.4554263  )
       303           O   tau( 303) = (  0.7858570  0.7385587  0.3779070  )
       304           O   tau( 304) = (  0.7858570  0.7614413  0.5445737  )
       305           O   tau( 305) = (  0.8808097  0.9281080  0.6220930  )
       306           O   tau( 306) = (  0.2670547  0.0975180  0.8928527  )
       307           O   tau( 307) = (  0.0662787  0.2641847  0.9404807  )
       308           O   tau( 308) = (  0.0662787  0.2358153  0.7738140  )
       309           O   tau( 309) = (  0.2670547  0.0691487  0.7261860  )
       310           O   tau( 310) = (  0.2141430  0.2385587  0.7887597  )
       311           O   tau( 311) = (  0.1191903  0.0718920  0.7112403  )
       312           O   tau( 312) = (  0.1191903  0.0947747  0.8779070  )
       313           O   tau( 313) = (  0.2141430  0.2614413  0.9554263  )
       314           O   tau( 314) = (  0.2670547  0.4308513  0.8928527  )
       315           O   tau( 315) = (  0.0662787  0.5975180  0.9404807  )
       316           O   tau( 316) = (  0.0662787  0.5691487  0.7738140  )
       317           O   tau( 317) = (  0.2670547  0.4024820  0.7261860  )
       318           O   tau( 318) = (  0.2141430  0.5718920  0.7887597  )
       319           O   tau( 319) = (  0.1191903  0.4052253  0.7112403  )
       320           O   tau( 320) = (  0.1191903  0.4281080  0.8779070  )
       321           O   tau( 321) = (  0.2141430  0.5947747  0.9554263  )
       322           O   tau( 322) = (  0.2670547  0.7641847  0.8928527  )
       323           O   tau( 323) = (  0.0662787  0.9308513  0.9404807  )
       324           O   tau( 324) = (  0.0662787  0.9024820  0.7738140  )
       325           O   tau( 325) = (  0.2670547  0.7358153  0.7261860  )
       326           O   tau( 326) = (  0.2141430  0.9052253  0.7887597  )
       327           O   tau( 327) = (  0.1191903  0.7385587  0.7112403  )
       328           O   tau( 328) = (  0.1191903  0.7614413  0.8779070  )
       329           O   tau( 329) = (  0.2141430  0.9281080  0.9554263  )
       330           O   tau( 330) = (  0.6003880  0.0975180  0.8928527  )
       331           O   tau( 331) = (  0.3996120  0.2641847  0.9404807  )
       332           O   tau( 332) = (  0.3996120  0.2358153  0.7738140  )
       333           O   tau( 333) = (  0.6003880  0.0691487  0.7261860  )
       334           O   tau( 334) = (  0.5474763  0.2385587  0.7887597  )
       335           O   tau( 335) = (  0.4525237  0.0718920  0.7112403  )
       336           O   tau( 336) = (  0.4525237  0.0947747  0.8779070  )
       337           O   tau( 337) = (  0.5474763  0.2614413  0.9554263  )
       338           O   tau( 338) = (  0.6003880  0.4308513  0.8928527  )
       339           O   tau( 339) = (  0.3996120  0.5975180  0.9404807  )
       340           O   tau( 340) = (  0.3996120  0.5691487  0.7738140  )
       341           O   tau( 341) = (  0.6003880  0.4024820  0.7261860  )
       342           O   tau( 342) = (  0.5474763  0.5718920  0.7887597  )
       343           O   tau( 343) = (  0.4525237  0.4052253  0.7112403  )
       344           O   tau( 344) = (  0.4525237  0.4281080  0.8779070  )
       345           O   tau( 345) = (  0.5474763  0.5947747  0.9554263  )
       346           O   tau( 346) = (  0.6003880  0.7641847  0.8928527  )
       347           O   tau( 347) = (  0.3996120  0.9308513  0.9404807  )
       348           O   tau( 348) = (  0.3996120  0.9024820  0.7738140  )
       349           O   tau( 349) = (  0.6003880  0.7358153  0.7261860  )
       350           O   tau( 350) = (  0.5474763  0.9052253  0.7887597  )
       351           O   tau( 351) = (  0.4525237  0.7385587  0.7112403  )
       352           O   tau( 352) = (  0.4525237  0.7614413  0.8779070  )
       353           O   tau( 353) = (  0.5474763  0.9281080  0.9554263  )
       354           O   tau( 354) = (  0.9337213  0.0975180  0.8928527  )
       355           O   tau( 355) = (  0.7329453  0.2641847  0.9404807  )
       356           O   tau( 356) = (  0.7329453  0.2358153  0.7738140  )
       357           O   tau( 357) = (  0.9337213  0.0691487  0.7261860  )
       358           O   tau( 358) = (  0.8808097  0.2385587  0.7887597  )
       359           O   tau( 359) = (  0.7858570  0.0718920  0.7112403  )
       360           O   tau( 360) = (  0.7858570  0.0947747  0.8779070  )
       361           O   tau( 361) = (  0.8808097  0.2614413  0.9554263  )
       362           O   tau( 362) = (  0.9337213  0.4308513  0.8928527  )
       363           O   tau( 363) = (  0.7329453  0.5975180  0.9404807  )
       364           O   tau( 364) = (  0.7329453  0.5691487  0.7738140  )
       365           O   tau( 365) = (  0.9337213  0.4024820  0.7261860  )
       366           O   tau( 366) = (  0.8808097  0.5718920  0.7887597  )
       367           O   tau( 367) = (  0.7858570  0.4052253  0.7112403  )
       368           O   tau( 368) = (  0.7858570  0.4281080  0.8779070  )
       369           O   tau( 369) = (  0.8808097  0.5947747  0.9554263  )
       370           O   tau( 370) = (  0.9337213  0.7641847  0.8928527  )
       371           O   tau( 371) = (  0.7329453  0.9308513  0.9404807  )
       372           O   tau( 372) = (  0.7329453  0.9024820  0.7738140  )
       373           O   tau( 373) = (  0.9337213  0.7358153  0.7261860  )
       374           O   tau( 374) = (  0.8808097  0.9052253  0.7887597  )
       375           O   tau( 375) = (  0.7858570  0.7614413  0.8779070  )
       376           O   tau( 376) = (  0.8808097  0.9281080  0.9554263  )

     number of k points=     1  Fermi-Dirac smearing, width (Ry)=  0.0020
                       cart. coord. in units 2pi/alat
        k(    1) = (   0.0000000   0.0000000   0.0000000), wk =   1.0000000

                       cryst. coord.
        k(    1) = (   0.0000000   0.0000000   0.0000000), wk =   1.0000000

     Dense  grid:  1755410 G-vectors     FFT dimensions: ( 200, 192, 225)

     Dynamical RAM for                 wfc:      11.29 MB

     Dynamical RAM for     wfc (w. buffer):      11.29 MB

     Dynamical RAM for           str. fact:       0.17 MB

     Dynamical RAM for           local pot:       0.00 MB

     Dynamical RAM for          nlocal pot:      24.74 MB

     Dynamical RAM for                qrad:       4.82 MB

     Dynamical RAM for          rho,v,vnew:       4.19 MB

     Dynamical RAM for               rhoin:       1.40 MB

     Dynamical RAM for            rho*nmix:       3.57 MB

     Dynamical RAM for           G-vectors:       0.24 MB

     Dynamical RAM for          h,s,v(r/c):       0.23 MB

     Dynamical RAM for          <psi|beta>:      43.82 MB

     Dynamical RAM for      wfcinit/wfcrot:      82.59 MB

     Estimated static dynamical RAM per process >      49.40 MB

     Estimated max dynamical RAM per process >     135.56 MB

     Estimated total dynamical RAM >     125.41 GB

     WARNING: libxc functional with ID  263 depends
      on external parameters: check the user_guide of
      QE if you need to modify them or to check their
      default values.
     Generating pointlists ...
     new r_m :   1.5545 (alat units)  1.5545 (a.u.) for type    1
     new r_m :   0.9835 (alat units)  0.9835 (a.u.) for type    2
     new r_m :   0.9835 (alat units)  0.9835 (a.u.) for type    3

     Initial potential from superposition of free atoms

     starting charge    2689.9824, renormalised to    2690.0000
     Starting wfcs are random

     total cpu time spent up to now is       17.9 secs

     Self-consistent Calculation

     iteration #  1     ecut=   100.00 Ry     beta= 0.50
     ParO style diagonalization

---- Real-time Memory Report at c_bands before calling an iterative solver
           387 MiB given to the printing process from OS
             0 MiB allocation reported by mallinfo(arena+hblkhd)
        358236 MiB available memory on the node where the printing process lives
------------------
     ethr =  1.00E-02,  avg # of iterations = 17.2

     total cpu time spent up to now is      365.1 secs

     total energy              =  -24505.14530917 Ry
     estimated scf accuracy    <13131380.42797801 Ry

     total magnetization       =   285.00 Bohr mag/cell
     absolute magnetization    =   352.48 Bohr mag/cell

     iteration #  2     ecut=   100.00 Ry     beta= 0.50
     ParO style diagonalization

---- Real-time Memory Report at c_bands before calling an iterative solver
           448 MiB given to the printing process from OS
             0 MiB allocation reported by mallinfo(arena+hblkhd)
        357692 MiB available memory on the node where the printing process lives
------------------
     ethr =  1.00E-02,  avg # of iterations =  6.3

     total cpu time spent up to now is      509.4 secs

     total energy              =  -24723.66947570 Ry
     estimated scf accuracy    < 1564085.30892790 Ry

     total magnetization       =   110.00 Bohr mag/cell
     absolute magnetization    =   129.83 Bohr mag/cell

     iteration #  3     ecut=   100.00 Ry     beta= 0.50
     ParO style diagonalization

---- Real-time Memory Report at c_bands before calling an iterative solver
           465 MiB given to the printing process from OS
             0 MiB allocation reported by mallinfo(arena+hblkhd)
        357485 MiB available memory on the node where the printing process lives
------------------
     ethr =  1.00E-02,  avg # of iterations =  3.1

     total cpu time spent up to now is      591.3 secs

     total energy              =  -24736.00891872 Ry
     estimated scf accuracy    <   32773.67593515 Ry

     total magnetization       =   101.43 Bohr mag/cell
     absolute magnetization    =   109.23 Bohr mag/cell

     iteration #  4     ecut=   100.00 Ry     beta= 0.50
     ParO style diagonalization

---- Real-time Memory Report at c_bands before calling an iterative solver
           466 MiB given to the printing process from OS
             0 MiB allocation reported by mallinfo(arena+hblkhd)
        357482 MiB available memory on the node where the printing process lives
------------------
     ethr =  1.00E-02,  avg # of iterations =  2.6

     total cpu time spent up to now is      658.7 secs

     total energy              =  -24748.74778929 Ry
     estimated scf accuracy    <   26851.20822897 Ry

     total magnetization       =   110.00 Bohr mag/cell
     absolute magnetization    =   119.15 Bohr mag/cell

     iteration #  5     ecut=   100.00 Ry     beta= 0.50
     ParO style diagonalization

---- Real-time Memory Report at c_bands before calling an iterative solver
           466 MiB given to the printing process from OS
             0 MiB allocation reported by mallinfo(arena+hblkhd)
        357482 MiB available memory on the node where the printing process lives
------------------
     ethr =  1.00E-02,  avg # of iterations =  2.0

     total cpu time spent up to now is      709.5 secs

     total energy              =  -24749.20745536 Ry
     estimated scf accuracy    <    2381.85999858 Ry

     total magnetization       =   107.15 Bohr mag/cell
     absolute magnetization    =   113.44 Bohr mag/cell

     iteration #  6     ecut=   100.00 Ry     beta= 0.50
     ParO style diagonalization

---- Real-time Memory Report at c_bands before calling an iterative solver
           466 MiB given to the printing process from OS
             0 MiB allocation reported by mallinfo(arena+hblkhd)
        357482 MiB available memory on the node where the printing process lives
------------------
     ethr =  1.00E-02,  avg # of iterations =  2.0

     total cpu time spent up to now is      762.8 secs

     total energy              =  -24748.78621859 Ry
     estimated scf accuracy    <    1171.92167610 Ry

     total magnetization       =   106.01 Bohr mag/cell
     absolute magnetization    =   112.97 Bohr mag/cell

     iteration #  7     ecut=   100.00 Ry     beta= 0.50
     ParO style diagonalization

---- Real-time Memory Report at c_bands before calling an iterative solver
           466 MiB given to the printing process from OS
             0 MiB allocation reported by mallinfo(arena+hblkhd)
        357484 MiB available memory on the node where the printing process lives
------------------
     ethr =  1.00E-02,  avg # of iterations =  2.0

     total cpu time spent up to now is      812.5 secs

     total energy              =  -24748.87492342 Ry
     estimated scf accuracy    <     237.51898377 Ry

     total magnetization       =   108.08 Bohr mag/cell
     absolute magnetization    =   113.63 Bohr mag/cell

     iteration #  8     ecut=   100.00 Ry     beta= 0.50
     ParO style diagonalization

---- Real-time Memory Report at c_bands before calling an iterative solver
           466 MiB given to the printing process from OS
             0 MiB allocation reported by mallinfo(arena+hblkhd)
        357482 MiB available memory on the node where the printing process lives
------------------
     ethr =  8.83E-03,  avg # of iterations =  2.0

     total cpu time spent up to now is      863.0 secs

     total energy              =  -24748.91872840 Ry
     estimated scf accuracy    <      43.67924366 Ry

     total magnetization       =   106.68 Bohr mag/cell
     absolute magnetization    =   112.96 Bohr mag/cell

     iteration #  9     ecut=   100.00 Ry     beta= 0.50
     ParO style diagonalization

---- Real-time Memory Report at c_bands before calling an iterative solver
           466 MiB given to the printing process from OS
             0 MiB allocation reported by mallinfo(arena+hblkhd)
        357477 MiB available memory on the node where the printing process lives
------------------
     ethr =  1.62E-03,  avg # of iterations =  2.1

     total cpu time spent up to now is      914.4 secs

     total energy              =  -24748.95983139 Ry
     estimated scf accuracy    <      33.64275682 Ry

     total magnetization       =   107.99 Bohr mag/cell
     absolute magnetization    =   113.27 Bohr mag/cell

     iteration # 10     ecut=   100.00 Ry     beta= 0.50
     ParO style diagonalization

---- Real-time Memory Report at c_bands before calling an iterative solver
           466 MiB given to the printing process from OS
             0 MiB allocation reported by mallinfo(arena+hblkhd)
        357465 MiB available memory on the node where the printing process lives
------------------
     ethr =  1.25E-03,  avg # of iterations =  2.0

     total cpu time spent up to now is      965.0 secs

     total energy              =  -24749.00150631 Ry
     estimated scf accuracy    <      37.26596047 Ry

     total magnetization       =   108.00 Bohr mag/cell
     absolute magnetization    =   113.40 Bohr mag/cell

     iteration # 11     ecut=   100.00 Ry     beta= 0.50
     ParO style diagonalization

---- Real-time Memory Report at c_bands before calling an iterative solver
           483 MiB given to the printing process from OS
             0 MiB allocation reported by mallinfo(arena+hblkhd)
        357417 MiB available memory on the node where the printing process lives
------------------
     ethr =  1.25E-03,  avg # of iterations =  2.0

     total cpu time spent up to now is     1018.6 secs

     total energy              =  -24748.99916558 Ry
     estimated scf accuracy    <      19.91990034 Ry

     total magnetization       =   107.98 Bohr mag/cell
     absolute magnetization    =   113.40 Bohr mag/cell

     iteration # 12     ecut=   100.00 Ry     beta= 0.50
     ParO style diagonalization

---- Real-time Memory Report at c_bands before calling an iterative solver
           483 MiB given to the printing process from OS
             0 MiB allocation reported by mallinfo(arena+hblkhd)
        357417 MiB available memory on the node where the printing process lives
------------------
     ethr =  7.41E-04,  avg # of iterations =  2.0

     Magnetic moment per site  (integrated on atomic sphere of radius R)
     atom   1 (R=1.555)  charge= 15.3516  magn=  1.6591
     atom   2 (R=1.555)  charge= 15.3820  magn=  1.6685
     atom   3 (R=1.555)  charge= 15.3819  magn=  1.6700
     atom   4 (R=1.555)  charge= 15.3795  magn=  1.6538
     atom   5 (R=1.555)  charge= 15.3830  magn=  1.6693
     atom   6 (R=1.555)  charge= 15.3817  magn=  1.6686
     atom   7 (R=1.555)  charge= 15.3628  magn=  1.6231
     atom   8 (R=1.555)  charge= 15.3826  magn=  1.6688
     atom   9 (R=1.555)  charge= 15.3817  magn=  1.6704
     atom  10 (R=1.555)  charge= 15.3810  magn=  1.6701
     atom  11 (R=1.555)  charge= 15.3831  magn=  1.6694
     atom  12 (R=1.555)  charge= 15.3821  magn=  1.6694
     atom  13 (R=1.555)  charge= 15.3815  magn=  1.6696
     atom  14 (R=1.555)  charge= 15.3821  magn=  1.6695
     atom  15 (R=1.555)  charge= 15.3820  magn=  1.6702
     atom  16 (R=1.555)  charge= 15.3817  magn=  1.6698
     atom  17 (R=1.555)  charge= 15.3822  magn=  1.6701
     atom  18 (R=1.555)  charge= 15.3822  magn=  1.6694
     atom  19 (R=1.555)  charge= 15.3824  magn=  1.6697
     atom  20 (R=1.555)  charge= 15.3835  magn=  1.6671
     atom  21 (R=1.555)  charge= 15.3823  magn=  1.6697
     atom  22 (R=1.555)  charge= 15.3830  magn=  1.6677
     atom  23 (R=1.555)  charge= 15.3821  magn=  1.6699
     atom  24 (R=1.555)  charge= 15.3823  magn=  1.6683
     atom  25 (R=1.555)  charge= 15.3833  magn=  1.6694
     atom  26 (R=1.555)  charge= 15.3834  magn=  1.6501
     atom  27 (R=1.555)  charge= 15.3818  magn=  1.6704
     atom  28 (R=1.555)  charge= 15.3817  magn=  1.6697
     atom  29 (R=1.555)  charge= 15.3820  magn=  1.6701
     atom  30 (R=1.555)  charge= 15.3824  magn=  1.6692
     atom  31 (R=1.555)  charge= 15.3823  magn=  1.6700
     atom  32 (R=1.555)  charge= 15.3824  magn=  1.6690
     atom  33 (R=1.555)  charge= 15.3823  magn=  1.6698
     atom  34 (R=1.555)  charge= 15.3821  magn=  1.6694
     atom  35 (R=1.555)  charge= 15.3817  magn=  1.6708
     atom  36 (R=1.555)  charge= 15.3823  magn=  1.6693
     atom  37 (R=1.555)  charge= 15.3815  magn=  1.6702
     atom  38 (R=1.555)  charge= 15.3821  magn=  1.6684
     atom  39 (R=1.555)  charge= 15.3811  magn=  1.6701
     atom  40 (R=1.555)  charge= 15.3823  magn=  1.6682
     atom  41 (R=1.555)  charge= 15.3887  magn=  1.6594
     atom  42 (R=1.555)  charge= 15.3970  magn=  1.6498
     atom  43 (R=1.555)  charge= 15.3821  magn=  1.6701
     atom  44 (R=1.555)  charge= 15.3824  magn=  1.6693
     atom  45 (R=1.555)  charge= 15.3818  magn=  1.6704
     atom  46 (R=1.555)  charge= 15.3824  magn=  1.6693
     atom  47 (R=1.555)  charge= 15.3816  magn=  1.6705
     atom  48 (R=1.555)  charge= 15.3815  magn=  1.6701
     atom  49 (R=1.555)  charge= 15.3819  magn=  1.6703
     atom  50 (R=1.555)  charge= 15.3818  magn=  1.6697
     atom  51 (R=1.555)  charge= 15.3815  magn=  1.6706
     atom  52 (R=1.555)  charge= 15.3822  magn=  1.6694
     atom  53 (R=1.555)  charge= 15.3806  magn=  1.6712
     atom  54 (R=1.555)  charge= 15.3782  magn=  1.6400
     atom  55 (R=0.983)  charge=  1.1415  magn= -0.0249
     atom  56 (R=0.983)  charge=  1.2183  magn= -0.0003
     atom  57 (R=0.983)  charge=  1.2191  magn= -0.0002
     atom  58 (R=0.983)  charge=  1.2175  magn= -0.0002
     atom  59 (R=0.983)  charge=  1.2175  magn= -0.0002
     atom  60 (R=0.983)  charge=  1.2176  magn= -0.0001
     atom  61 (R=0.983)  charge=  1.2178  magn= -0.0001
     atom  62 (R=0.983)  charge=  1.2181  magn= -0.0004
     atom  63 (R=0.983)  charge=  1.2172  magn= -0.0003
     atom  64 (R=0.983)  charge=  1.2179  magn= -0.0000
     atom  65 (R=0.983)  charge=  1.2185  magn= -0.0001
     atom  66 (R=0.983)  charge=  1.2176  magn= -0.0002
     atom  67 (R=0.983)  charge=  1.2178  magn= -0.0003
     atom  68 (R=0.983)  charge=  1.2179  magn= -0.0002
     atom  69 (R=0.983)  charge=  1.2178  magn= -0.0003
     atom  70 (R=0.983)  charge=  1.2179  magn= -0.0003
     atom  71 (R=0.983)  charge=  1.2177  magn= -0.0004
     atom  72 (R=0.983)  charge=  1.2179  magn= -0.0003
     atom  73 (R=0.983)  charge=  1.2177  magn= -0.0003
     atom  74 (R=0.983)  charge=  1.2180  magn= -0.0003
     atom  75 (R=0.983)  charge=  1.2178  magn= -0.0003
     atom  76 (R=0.983)  charge=  1.2180  magn= -0.0004
     atom  77 (R=0.983)  charge=  1.2184  magn= -0.0004
     atom  78 (R=0.983)  charge=  1.2177  magn=  0.0001
     atom  79 (R=0.983)  charge=  1.2180  magn=  0.0001
     atom  80 (R=0.983)  charge=  1.2178  magn= -0.0003
     atom  81 (R=0.983)  charge=  1.2171  magn= -0.0003
     atom  82 (R=0.983)  charge=  1.2177  magn= -0.0001
     atom  83 (R=0.983)  charge=  1.2175  magn= -0.0001
     atom  84 (R=0.983)  charge=  1.2175  magn= -0.0003
     atom  85 (R=0.983)  charge=  1.2172  magn= -0.0003
     atom  86 (R=0.983)  charge=  1.2177  magn= -0.0001
     atom  87 (R=0.983)  charge=  1.2178  magn= -0.0001
     atom  88 (R=0.983)  charge=  1.2176  magn= -0.0003
     atom  89 (R=0.983)  charge=  1.2173  magn= -0.0003
     atom  90 (R=0.983)  charge=  1.2177  magn= -0.0003
     atom  91 (R=0.983)  charge=  1.2170  magn=  0.0001
     atom  92 (R=0.983)  charge=  1.2177  magn= -0.0001
     atom  93 (R=0.983)  charge=  1.2178  magn= -0.0001
     atom  94 (R=0.983)  charge=  1.2175  magn= -0.0003
     atom  95 (R=0.983)  charge=  1.2174  magn=  0.0002
     atom  96 (R=0.983)  charge=  1.2177  magn= -0.0001
     atom  97 (R=0.983)  charge=  1.2177  magn= -0.0002
     atom  98 (R=0.983)  charge=  1.2177  magn= -0.0003
     atom  99 (R=0.983)  charge=  1.2172  magn= -0.0003
     atom 100 (R=0.983)  charge=  1.2177  magn= -0.0001
     atom 101 (R=0.983)  charge=  1.2178  magn= -0.0001
     atom 102 (R=0.983)  charge=  1.2181  magn= -0.0003
     atom 103 (R=0.983)  charge=  1.2187  magn= -0.0003
     atom 104 (R=0.983)  charge=  1.2180  magn= -0.0004
     atom 105 (R=0.983)  charge=  1.2178  magn= -0.0003
     atom 106 (R=0.983)  charge=  1.2179  magn= -0.0003
     atom 107 (R=0.983)  charge=  1.2177  magn= -0.0006
     atom 108 (R=0.983)  charge=  1.2179  magn= -0.0004
     atom 109 (R=0.983)  charge=  1.2174  magn= -0.0009
     atom 110 (R=0.983)  charge=  1.2178  magn= -0.0002
     atom 111 (R=0.983)  charge=  1.2177  magn= -0.0003
[...]
     atom  171 type  3   force =    -0.01228197    0.01336605    0.00371009
     atom  172 type  3   force =    -0.01962431    0.01200779    0.00141909
     atom  173 type  3   force =    -0.01675239   -0.03027069    0.00509978
     atom  174 type  3   force =    -0.00757126   -0.01268946    0.01812035
     atom  175 type  3   force =    -0.01389962    0.00393901   -0.01508086
     atom  176 type  3   force =    -0.03136453    0.01425870    0.01569357
     atom  177 type  3   force =    -0.02879496   -0.01038075    0.01884797
     atom  178 type  3   force =    -0.02419073   -0.01390205    0.00717866
     atom  179 type  3   force =     0.01684190    0.00610356    0.02106543
     atom  180 type  3   force =     0.01541267   -0.01360105    0.00069802
     atom  181 type  3   force =    -0.01315491   -0.00879564    0.00869278
     atom  182 type  3   force =    -0.00248707   -0.01434954    0.03040442
     atom  183 type  3   force =    -0.00038984    0.00469540   -0.01049564
     atom  184 type  3   force =    -0.03074415    0.00084075   -0.00592213
     atom  185 type  3   force =    -0.01818303   -0.03514816    0.02186949
     atom  186 type  3   force =     0.00857052   -0.00605667    0.01493602
     atom  187 type  3   force =     0.01275703    0.01738600    0.03164312
     atom  188 type  3   force =     0.01338904   -0.00792231   -0.00029921
     atom  189 type  3   force =     0.00921881   -0.00779070    0.00789768
     atom  190 type  3   force =     0.02012145   -0.01297976    0.01788562
     atom  191 type  3   force =     0.02765731    0.01473335   -0.00795502
     atom  192 type  3   force =     0.01408392    0.01772578    0.00403054
     atom  193 type  3   force =    -0.00860585   -0.01111784    0.02669081
     atom  194 type  3   force =    -0.00656267   -0.01485796    0.01457735
     atom  195 type  3   force =    -0.01506947    0.00977867    0.00232327
     atom  196 type  3   force =    -0.01107886    0.00918868    0.00048280
     atom  197 type  3   force =    -0.00026283   -0.01085511    0.00863616
     atom  198 type  3   force =     0.00842156   -0.00920179    0.01816522
     atom  199 type  3   force =     0.01042433    0.00203459   -0.00964766
     atom  200 type  3   force =    -0.02328394    0.00055522    0.00217002
     atom  201 type  3   force =    -0.02410432   -0.01208769    0.02115941
     atom  202 type  3   force =    -0.00730563   -0.00767065    0.01224077
     atom  203 type  3   force =    -0.01724923    0.03002384   -0.00865961
     atom  204 type  3   force =    -0.00037980    0.02718688    0.00591941
     atom  205 type  3   force =    -0.00086774   -0.00851915    0.01089801
     atom  206 type  3   force =     0.01721318   -0.00070126    0.01941954
     atom  207 type  3   force =     0.00940569    0.01464426   -0.00665804
     atom  208 type  3   force =    -0.02855566    0.01518747   -0.00662316
     atom  209 type  3   force =    -0.01726260    0.00513514    0.01564331
     atom  210 type  3   force =     0.00525398    0.00841424    0.02622460
     atom  211 type  3   force =    -0.00129672    0.01385516    0.00498126
     atom  212 type  3   force =     0.00527502    0.01677460    0.00225659
     atom  213 type  3   force =     0.02710567    0.00081140   -0.01788365
     atom  214 type  3   force =     0.01809289    0.01634530    0.02331597
     atom  215 type  3   force =     0.02398315    0.01726856   -0.00939929
     atom  216 type  3   force =    -0.00921951    0.01108578   -0.00160920
     atom  217 type  3   force =    -0.01435411   -0.00871000    0.02364567
     atom  218 type  3   force =    -0.00697413   -0.00565987    0.02024195
     atom  219 type  3   force =    -0.00777349    0.01470274    0.00595306
     atom  220 type  3   force =    -0.00379753    0.01611902    0.00229503
     atom  221 type  3   force =    -0.01765854    0.00492213    0.00951732
     atom  222 type  3   force =     0.00537207   -0.00592994    0.02016860
     atom  223 type  3   force =     0.00981899    0.02154523   -0.00716865
     atom  224 type  3   force =    -0.01932276    0.01281823   -0.00155594
     atom  225 type  3   force =    -0.02099358   -0.00644900    0.02109997
     atom  226 type  3   force =    -0.00724677   -0.01519896    0.01277255
     atom  227 type  3   force =     0.00072735    0.01666780    0.00292599
     atom  228 type  3   force =     0.00542632    0.01554949    0.00290810
     atom  229 type  3   force =    -0.00497604   -0.01976519    0.01028341
     atom  230 type  3   force =     0.02481344   -0.01011011    0.02065837
     atom  231 type  3   force =     0.01264293    0.00916620   -0.00489043
     atom  232 type  3   force =    -0.01829825    0.01105938   -0.00353829
     atom  233 type  3   force =    -0.01361391   -0.01134308    0.02161978
     atom  234 type  3   force =     0.00071693   -0.01660090   -0.01052531
     atom  235 type  3   force =    -0.00222302    0.01213706   -0.01085145
     atom  236 type  3   force =     0.00797625    0.00710790   -0.00063446
     atom  237 type  3   force =     0.00685105   -0.03353546    0.00389834
     atom  238 type  3   force =     0.02844102   -0.01568763    0.01126499
     atom  239 type  3   force =     0.02537729   -0.00005209    0.01095385
     atom  240 type  3   force =    -0.01204124    0.00421552   -0.01858091
     atom  241 type  3   force =    -0.01196564   -0.01034071    0.00357978
     atom  242 type  3   force =     0.00187945   -0.00973140    0.00042465
     atom  243 type  3   force =    -0.01485752    0.04055194   -0.00033406
     atom  244 type  3   force =    -0.00126917    0.01800011   -0.00036378
     atom  245 type  3   force =     0.00996757   -0.01155837    0.01352656
     atom  246 type  3   force =     0.01269660   -0.00617784    0.01091963
     atom  247 type  3   force =     0.01955549    0.01076888   -0.00211623
     atom  248 type  3   force =    -0.01672536    0.01405637   -0.01346831
     atom  249 type  3   force =    -0.01861969    0.00198765    0.00711871
     atom  250 type  3   force =    -0.00938870   -0.00737297   -0.00411657
     atom  251 type  3   force =     0.00449560    0.01785233   -0.00724624
     atom  252 type  3   force =    -0.00131464    0.00767509   -0.00534729
     atom  253 type  3   force =    -0.01095254   -0.01387306   -0.00049311
     atom  254 type  3   force =     0.00450823   -0.01449891    0.00146003
     atom  255 type  3   force =     0.00647454    0.00802197   -0.01075994
     atom  256 type  3   force =    -0.01817186    0.01875234   -0.01291323
     atom  257 type  3   force =    -0.01708997   -0.00671493    0.00332703
     atom  258 type  3   force =     0.00097846   -0.00798076   -0.01095674
     atom  259 type  3   force =     0.00491032    0.01332122   -0.01662628
     atom  260 type  3   force =     0.02390016    0.01699931   -0.01263246
     atom  261 type  3   force =     0.01057377   -0.00001600    0.00374302
     atom  262 type  3   force =     0.02672819   -0.00288890    0.00994436
     atom  263 type  3   force =     0.02410545    0.02757015   -0.01890164
     atom  264 type  3   force =    -0.01343316    0.01318562   -0.03372174
     atom  265 type  3   force =    -0.01060234   -0.00760265   -0.00115643
     atom  266 type  3   force =    -0.00693760   -0.02090143    0.00144248
     atom  267 type  3   force =    -0.00233750    0.01277556   -0.01175116
     atom  268 type  3   force =    -0.00183753    0.00886196   -0.00501506
     atom  269 type  3   force =    -0.00034597   -0.01573640    0.01467931
     atom  270 type  3   force =     0.00929358   -0.02128326    0.01965468
     atom  271 type  3   force =     0.01844920    0.00752070   -0.00091865
     atom  272 type  3   force =    -0.01114811    0.00733683   -0.01633123
     atom  273 type  3   force =    -0.02202234   -0.02973721    0.00751634
     atom  274 type  3   force =     0.00695605   -0.04228971    0.01277546
     atom  275 type  3   force =    -0.00970758    0.01503455   -0.02042222
     atom  276 type  3   force =    -0.01250788    0.01451679   -0.02183904
     atom  277 type  3   force =    -0.00195188   -0.01671363    0.01442901
     atom  278 type  3   force =     0.01016672   -0.00778938    0.00136110
     atom  279 type  3   force =     0.00420128    0.00747991   -0.01424384
     atom  280 type  3   force =    -0.02212649    0.00489752   -0.02328029
     atom  281 type  3   force =    -0.02050662   -0.01084997   -0.00433388
     atom  282 type  3   force =     0.00311589   -0.01295150    0.00140578
     atom  283 type  3   force =    -0.00291163    0.01216510   -0.01516075
     atom  284 type  3   force =     0.00483231    0.01493152   -0.00167373
     atom  285 type  3   force =     0.00826341   -0.01682868    0.01043999
     atom  286 type  3   force =     0.01668355   -0.00936866    0.01520871
     atom  287 type  3   force =     0.02167414    0.01217690   -0.00636744
     atom  288 type  3   force =    -0.01003387    0.01104478   -0.01778548
     atom  289 type  3   force =    -0.01872785   -0.01077695    0.00234009
     atom  290 type  3   force =    -0.01904693   -0.00430327    0.00688203
     atom  291 type  3   force =    -0.05835115   -0.03723020    0.03320423
     atom  292 type  3   force =    -0.00773309    0.00952674    0.01887622
     atom  293 type  3   force =     0.00029561   -0.01078263    0.01279481
     atom  294 type  3   force =     0.00773170    0.00124812    0.03072159
     atom  295 type  3   force =     0.01051159    0.01076184   -0.00118688
     atom  296 type  3   force =    -0.03586372    0.00499665   -0.00749650
     atom  297 type  3   force =    -0.07507191    0.01780815    0.04040935
     atom  298 type  3   force =     0.01621641    0.01369287    0.03163080
     atom  299 type  3   force =     0.01791492    0.00108997   -0.00953951
     atom  300 type  3   force =     0.00950912    0.01566250    0.00161370
     atom  301 type  3   force =     0.00037266   -0.00806262    0.01341745
     atom  302 type  3   force =     0.02260589   -0.00578600    0.01847637
     atom  303 type  3   force =     0.01564181    0.01392713    0.00262853
     atom  304 type  3   force =     0.00965904    0.00985340    0.04369276
     atom  305 type  3   force =     0.01257728   -0.00698450    0.01406709
     atom  306 type  3   force =     0.01082883   -0.01201697    0.00207110
     atom  307 type  3   force =     0.00963480    0.00292992   -0.03348920
     atom  308 type  3   force =     0.00666858    0.00741938   -0.02146144
     atom  309 type  3   force =     0.00574452   -0.01130036   -0.00301580
     atom  310 type  3   force =     0.02018138   -0.01272814    0.00026481
     atom  311 type  3   force =     0.02306947    0.00966897   -0.01794457
     atom  312 type  3   force =     0.00599447    0.00512016   -0.01396722
     atom  313 type  3   force =    -0.00366899   -0.02599428   -0.00605593
     atom  314 type  3   force =    -0.01100921   -0.01787692   -0.00780784
     atom  315 type  3   force =    -0.02691721    0.01131387   -0.02472886
     atom  316 type  3   force =    -0.03184873    0.03259875   -0.03782300
     atom  317 type  3   force =     0.00208092   -0.00986446   -0.00385705
     atom  318 type  3   force =     0.00550378    0.00310798   -0.00019486
     atom  319 type  3   force =     0.00797176    0.01366837   -0.02421147
     atom  320 type  3   force =    -0.03300142    0.00400596   -0.03549256
     atom  321 type  3   force =    -0.03389058   -0.00846682    0.00181689
     atom  322 type  3   force =    -0.00618925   -0.00115463    0.00023715
     atom  323 type  3   force =     0.00827116    0.00387034   -0.00179047
     atom  324 type  3   force =     0.02453590    0.02600173   -0.01061792
     atom  325 type  3   force =     0.00006523    0.00080505   -0.00079835
     atom  326 type  3   force =     0.01994572    0.00008667    0.00771468
     atom  327 type  3   force =     0.02338644    0.04645794   -0.02148259
     atom  328 type  3   force =    -0.01939080    0.02696660   -0.03673004
     atom  329 type  3   force =    -0.01215793   -0.00126804    0.01918483
     atom  330 type  3   force =     0.00130196   -0.00716853   -0.00003844
     atom  331 type  3   force =     0.00248089    0.00736054   -0.01083878
     atom  332 type  3   force =     0.00562243    0.01407556   -0.01358061
     atom  333 type  3   force =     0.00270824   -0.00995328   -0.00798191
     atom  334 type  3   force =     0.01874459   -0.00502832    0.00156627
     atom  335 type  3   force =     0.01600491    0.01257291   -0.02363842
     atom  336 type  3   force =    -0.01167096    0.01276120   -0.01628344
     atom  337 type  3   force =    -0.01265350   -0.00638956    0.00863913
     atom  338 type  3   force =    -0.00398314   -0.00773988    0.00017744
     atom  339 type  3   force =    -0.00933039    0.01526799   -0.00609436
     atom  340 type  3   force =     0.00130634    0.01849400   -0.00859923
     atom  341 type  3   force =     0.00275470   -0.01297673   -0.00628372
     atom  342 type  3   force =     0.01596146   -0.00901379    0.00791026
     atom  343 type  3   force =     0.01933144    0.01170786   -0.01949895
     atom  344 type  3   force =    -0.01665027    0.01110215   -0.01655680
     atom  345 type  3   force =    -0.01988011   -0.00597245    0.01351414
     atom  346 type  3   force =    -0.00347179   -0.00873719    0.00775061
     atom  347 type  3   force =    -0.00085381    0.02012921   -0.00242168
     atom  348 type  3   force =    -0.00082517    0.01871637   -0.01029320
     atom  349 type  3   force =     0.00729882   -0.03000453   -0.00697024
     atom  350 type  3   force =     0.01122992   -0.00495124    0.00619550
     atom  351 type  3   force =     0.01233734    0.01453531   -0.01766255
     atom  352 type  3   force =    -0.01798790    0.01609281   -0.01107000
     atom  353 type  3   force =    -0.01486186   -0.00390072    0.01379568
     atom  354 type  3   force =     0.01914302   -0.01885495   -0.00452428
     atom  355 type  3   force =     0.00126597    0.02511944   -0.01159766
     atom  356 type  3   force =     0.00537594    0.01543894   -0.02116325
     atom  357 type  3   force =     0.01503117   -0.01658208   -0.00383124
     atom  358 type  3   force =     0.01996201   -0.00981079   -0.00912255
     atom  359 type  3   force =     0.02261500    0.00643661   -0.02365176
     atom  360 type  3   force =    -0.00656602    0.01118474   -0.02088252
     atom  361 type  3   force =    -0.00871910    0.00693071   -0.00859491
     atom  362 type  3   force =    -0.02372115   -0.01251491   -0.02060374
     atom  363 type  3   force =    -0.00833289    0.01281964   -0.00576272
     atom  364 type  3   force =    -0.02032747   -0.01575460   -0.02989045
     atom  365 type  3   force =    -0.01739449   -0.01476503   -0.01702177
     atom  366 type  3   force =    -0.04415772   -0.02395379   -0.04216057
     atom  367 type  3   force =     0.00107854    0.00273995   -0.02986720
     atom  368 type  3   force =    -0.02579134    0.01384978   -0.02681657
     atom  369 type  3   force =    -0.03105746   -0.01543711    0.00240195
     atom  370 type  3   force =     0.00183997   -0.03295263   -0.03592702
     atom  371 type  3   force =    -0.00044305    0.01316298   -0.00274323
     atom  372 type  3   force =     0.01038465   -0.00406449   -0.01452243
     atom  373 type  3   force =     0.03170241    0.06264470   -0.03694868
     atom  374 type  3   force =     0.05480162   -0.02999873   -0.00421518
     atom  375 type  3   force =    -0.01250240   -0.01150189   -0.02218253
     atom  376 type  3   force =    -0.00782474   -0.02135949    0.01235097

     Total force =     0.560852     Total SCF correction =     0.727119
     SCF correction compared to forces is large: reduce conv_thr to get better values

     Writing all to output data dir ./calc.save/
     Writing meta-gga kinetic term

     init_run     :     16.19s CPU     16.60s WALL (       1 calls)
     electrons    :   1043.41s CPU   1051.77s WALL (       1 calls)
     forces       :      2.29s CPU      2.34s WALL (       1 calls)

     Called by init_run:
     wfcinit      :     14.01s CPU     14.19s WALL (       1 calls)
     wfcinit:wfcr :     13.92s CPU     14.09s WALL (       1 calls)
     potinit      :      0.64s CPU      0.65s WALL (       1 calls)
     hinit0       :      0.97s CPU      1.02s WALL (       1 calls)

     Called by electrons:
     c_bands      :    930.82s CPU    937.69s WALL (      12 calls)
     sum_band     :    110.18s CPU    110.90s WALL (      12 calls)
     v_of_rho     :      1.56s CPU      1.74s WALL (      13 calls)
     v_h          :      0.06s CPU      0.07s WALL (      13 calls)
     v_xc_meta    :      1.50s CPU      1.65s WALL (      13 calls)
     mix_rho      :      0.27s CPU      0.35s WALL (      12 calls)

     Called by c_bands:
     init_us_2    :      0.20s CPU      0.24s WALL (      25 calls)
     init_us_2:cp :      0.20s CPU      0.23s WALL (      25 calls)
     paro_gamma   :    870.17s CPU    876.80s WALL (      12 calls)

     Called by sum_band:
     sum_band:wei :      0.07s CPU      0.10s WALL (      12 calls)
     sum_band:loo :    103.92s CPU    104.54s WALL (      12 calls)
     sum_band:buf :      0.00s CPU      0.00s WALL (      12 calls)
     sum_band:ini :      0.10s CPU      0.14s WALL (      12 calls)

     Called by paro_*:
     paro:init    :    211.92s CPU    213.28s WALL (      12 calls)
     paro:pack    :      0.61s CPU      0.61s WALL (      38 calls)
     paro:mp_bar  :      0.00s CPU      0.00s WALL (      38 calls)
     paro:mp_sum  :      0.43s CPU      0.44s WALL (      38 calls)
     pcg          :    601.39s CPU    605.90s WALL (      38 calls)
     pcg:hs_1psi  :    577.98s CPU    581.96s WALL (     868 calls)
     pcg:ortho    :     17.68s CPU     18.09s WALL (    1644 calls)
     pcg:move     :      0.36s CPU      0.37s WALL (   29388 calls)
     rotHSw       :     55.77s CPU     56.52s WALL (      50 calls)
     rotHSw:hc    :     16.89s CPU     17.34s WALL (      50 calls)
     rotHSw:diag  :     20.42s CPU     20.56s WALL (      50 calls)
     rotHSw:evc   :     18.46s CPU     18.57s WALL (      50 calls)
     rotHSw:hc:co :      8.53s CPU      8.71s WALL (   13600 calls)
     rotHSw:hc:rs :      8.20s CPU      8.47s WALL (   13600 calls)
     rotHSw:hc:sy :      0.00s CPU      0.01s WALL (     100 calls)
     rotHSw:ev:bc :      3.51s CPU      3.56s WALL (      50 calls)
     rotHSw:ev:co :     14.14s CPU     14.19s WALL (     100 calls)
     rotHSw:ev:su :      0.00s CPU      0.00s WALL (     100 calls)
     h_psi        :    802.74s CPU    808.16s WALL (     881 calls)
     g_psi        :      0.21s CPU      0.23s WALL (   80311 calls)

     Called by h_psi:
     h_psi:calbec :     16.06s CPU     16.53s WALL (     881 calls)
     vloc_psi     :    191.93s CPU    193.25s WALL (     881 calls)
     vloc_psi:tg_ :      0.11s CPU      0.13s WALL (     881 calls)
     add_vuspsi   :     11.42s CPU     11.49s WALL (     881 calls)
     h_psi_meta   :    583.15s CPU    586.61s WALL (     881 calls)

     General routines
     calbec       :     17.15s CPU     17.63s WALL (     885 calls)
     fft          :      0.92s CPU      0.97s WALL (     240 calls)
     ffts         :      0.16s CPU      0.17s WALL (      48 calls)
     fftw         :    856.20s CPU    861.37s WALL (  330376 calls)
     interpolate  :      0.00s CPU      0.00s WALL (      26 calls)

     Parallel routines
     fft_scatt_xy :     23.73s CPU     23.81s WALL (  330664 calls)
     fft_scatt_yz :    771.65s CPU    776.45s WALL (  330664 calls)
     fft_scatt_tg :      0.60s CPU      0.60s WALL (   72874 calls)

     PWSCF        :  17m57.22s CPU  18m23.79s WALL


   This run was terminated on:  15:15:55   6Apr2023            

=------------------------------------------------------------------------------=
   JOB DONE.
=------------------------------------------------------------------------------=
