
.Version 9.6.2 of ABINIT 
.(MPI version, prepared for a x86_64_linux_gnu10.3 computer) 

.Copyright (C) 1998-2021 ABINIT group . 
 ABINIT comes with ABSOLUTELY NO WARRANTY.
 It is free software, and you are welcome to redistribute it
 under certain conditions (GNU General Public License,
 see ~abinit/COPYING or http://www.gnu.org/copyleft/gpl.txt).

 ABINIT is a project of the Universite Catholique de Louvain,
 Corning Inc. and other collaborators, see ~abinit/doc/developers/contributors.txt .
 Please read https://docs.abinit.org/theory/acknowledgments for suggested
 acknowledgments of the ABINIT effort.
 For more information, see https://www.abinit.org .

.Starting date : Wed 14 Dec 2022.
- ( at 23h01 )
  
- input  file    -> NiC2O4.in
- output file    -> NiC2O4.out
- root for input  files -> abi
- root for output files -> abo


 Symmetries : space group P1 (#  1); Bravais aP (primitive triclinic)
================================================================================
 Values of the parameters that define the memory need of the present run
     intxc =       0    ionmov =       0      iscf =       7    lmnmax =       6
     lnmax =       6     mgfft =     160  mpssoang =       3    mqgrid =    6609
     natom =      14  nloc_mem =       1    nspden =       2   nspinor =       1
    nsppol =       2      nsym =       1    n1xccc =       0    ntypat =       3
    occopt =       3   xclevel =       2
-    mband =          65        mffmem =           1         mkmem =           1
       mpw =      150947          nfft =     3110400          nkpt =           4
================================================================================
P This job should need less than                    1823.650 Mbytes of memory.
  Rough estimation (10% accuracy) of disk space for files :
_ WF disk file :   1197.702 Mbytes ; DEN or POT disk file :     47.463 Mbytes.
================================================================================

--------------------------------------------------------------------------------
------------- Echo of variables that govern the present computation ------------
--------------------------------------------------------------------------------
-
- outvars: echo of selected default values                                      
-   iomode0 =  0 , fftalg0 =312 , wfoptalg0 =  0
-
- outvars: echo of global parameters not present in the input file              
-  max_nthreads =    0
-
 -outvars: echo values of preprocessed input variables --------
            acell      9.4000000000E-01  9.4000000000E-01  9.4000000000E-01 Bohr
              amu      5.86900000E+01  1.20110000E+01  1.59994000E+01
        autoparal           1
           diemac      1.00000000E+00
           diemix      4.00000000E-01
             ecut      2.50000000E+02 Hartree
           ecutsm      5.00000000E-01 Hartree
-          fftalg         312
              ixc     -263267
              kpt      2.50000000E-01  2.50000000E-01  2.50000000E-01
                      -2.50000000E-01  2.50000000E-01  2.50000000E-01
                       2.50000000E-01 -2.50000000E-01  2.50000000E-01
                      -2.50000000E-01 -2.50000000E-01  2.50000000E-01
         kptrlatt        2    0    0      0    2    0      0    0    2
          kptrlen      1.80716943E+01
P           mkmem           1
            natom          14
            nband          65
            ngfft         144     135     160
             nkpt           4
-        np_spkpt           8
           nspden           2
           nsppol           2
            nstep          60
             nsym           1
           ntypat           3
              occ      1.000000  1.000000  1.000000  1.000000  1.000000  1.000000
                       1.000000  1.000000  1.000000  1.000000  1.000000  1.000000
                       1.000000  1.000000  1.000000  1.000000  1.000000  1.000000
                       1.000000  1.000000  1.000000  1.000000  1.000000  1.000000
                       1.000000  1.000000  1.000000  1.000000  1.000000  1.000000
                       1.000000  1.000000  1.000000  1.000000  1.000000  1.000000
                       1.000000  1.000000  1.000000  1.000000  1.000000  1.000000
                       1.000000  1.000000  1.000000  1.000000  1.000000  1.000000
                       1.000000  1.000000  0.000000  0.000000  0.000000  0.000000
                       0.000000  0.000000  0.000000  0.000000  0.000000  0.000000
                       0.000000  0.000000  0.000000  0.000000  0.000000
                       1.000000  1.000000  1.000000  1.000000  1.000000  1.000000
                       1.000000  1.000000  1.000000  1.000000  1.000000  1.000000
                       1.000000  1.000000  1.000000  1.000000  1.000000  1.000000
                       1.000000  1.000000  1.000000  1.000000  1.000000  1.000000
                       1.000000  1.000000  1.000000  1.000000  1.000000  1.000000
                       1.000000  1.000000  1.000000  1.000000  1.000000  1.000000
                       1.000000  1.000000  1.000000  1.000000  1.000000  1.000000
                       1.000000  1.000000  1.000000  1.000000  1.000000  1.000000
                       1.000000  1.000000  0.000000  0.000000  0.000000  0.000000
                       0.000000  0.000000  0.000000  0.000000  0.000000  0.000000
                       0.000000  0.000000  0.000000  0.000000  0.000000
                       1.000000  1.000000  1.000000  1.000000  1.000000  1.000000
                       1.000000  1.000000  1.000000  1.000000  1.000000  1.000000
                       1.000000  1.000000  1.000000  1.000000  1.000000  1.000000
                       1.000000  1.000000  1.000000  1.000000  1.000000  1.000000
                       1.000000  1.000000  1.000000  1.000000  1.000000  1.000000
                       1.000000  1.000000  1.000000  1.000000  1.000000  1.000000
                       1.000000  1.000000  1.000000  1.000000  1.000000  1.000000
                       1.000000  1.000000  1.000000  1.000000  1.000000  1.000000
                       1.000000  1.000000  0.000000  0.000000  0.000000  0.000000
                       0.000000  0.000000  0.000000  0.000000  0.000000  0.000000
                       0.000000  0.000000  0.000000  0.000000  0.000000
                       1.000000  1.000000  1.000000  1.000000  1.000000  1.000000
                       1.000000  1.000000  1.000000  1.000000  1.000000  1.000000
                       1.000000  1.000000  1.000000  1.000000  1.000000  1.000000
                       1.000000  1.000000  1.000000  1.000000  1.000000  1.000000
                       1.000000  1.000000  1.000000  1.000000  1.000000  1.000000
                       1.000000  1.000000  1.000000  1.000000  1.000000  1.000000
                       1.000000  1.000000  1.000000  1.000000  1.000000  1.000000
                       1.000000  1.000000  1.000000  1.000000  1.000000  1.000000
                       1.000000  1.000000  0.000000  0.000000  0.000000  0.000000
                       0.000000  0.000000  0.000000  0.000000  0.000000  0.000000
                       0.000000  0.000000  0.000000  0.000000  0.000000
                       1.000000  1.000000  1.000000  1.000000  1.000000  1.000000
                       1.000000  1.000000  1.000000  1.000000  1.000000  1.000000
                       1.000000  1.000000  1.000000  1.000000  1.000000  1.000000
                       1.000000  1.000000  1.000000  1.000000  1.000000  1.000000
                       1.000000  1.000000  1.000000  1.000000  1.000000  1.000000
                       1.000000  1.000000  1.000000  1.000000  1.000000  1.000000
                       1.000000  1.000000  1.000000  1.000000  1.000000  1.000000
                       1.000000  1.000000  1.000000  1.000000  1.000000  1.000000
                       1.000000  1.000000  0.000000  0.000000  0.000000  0.000000
                       0.000000  0.000000  0.000000  0.000000  0.000000  0.000000
                       0.000000  0.000000  0.000000  0.000000  0.000000
                       1.000000  1.000000  1.000000  1.000000  1.000000  1.000000
                       1.000000  1.000000  1.000000  1.000000  1.000000  1.000000
                       1.000000  1.000000  1.000000  1.000000  1.000000  1.000000
                       1.000000  1.000000  1.000000  1.000000  1.000000  1.000000
                       1.000000  1.000000  1.000000  1.000000  1.000000  1.000000
                       1.000000  1.000000  1.000000  1.000000  1.000000  1.000000
                       1.000000  1.000000  1.000000  1.000000  1.000000  1.000000
                       1.000000  1.000000  1.000000  1.000000  1.000000  1.000000
                       1.000000  1.000000  0.000000  0.000000  0.000000  0.000000
                       0.000000  0.000000  0.000000  0.000000  0.000000  0.000000
                       0.000000  0.000000  0.000000  0.000000  0.000000
                       1.000000  1.000000  1.000000  1.000000  1.000000  1.000000
                       1.000000  1.000000  1.000000  1.000000  1.000000  1.000000
                       1.000000  1.000000  1.000000  1.000000  1.000000  1.000000
                       1.000000  1.000000  1.000000  1.000000  1.000000  1.000000
                       1.000000  1.000000  1.000000  1.000000  1.000000  1.000000
                       1.000000  1.000000  1.000000  1.000000  1.000000  1.000000
                       1.000000  1.000000  1.000000  1.000000  1.000000  1.000000
                       1.000000  1.000000  1.000000  1.000000  1.000000  1.000000
                       1.000000  1.000000  0.000000  0.000000  0.000000  0.000000
                       0.000000  0.000000  0.000000  0.000000  0.000000  0.000000
                       0.000000  0.000000  0.000000  0.000000  0.000000
                       1.000000  1.000000  1.000000  1.000000  1.000000  1.000000
                       1.000000  1.000000  1.000000  1.000000  1.000000  1.000000
                       1.000000  1.000000  1.000000  1.000000  1.000000  1.000000
                       1.000000  1.000000  1.000000  1.000000  1.000000  1.000000
                       1.000000  1.000000  1.000000  1.000000  1.000000  1.000000
                       1.000000  1.000000  1.000000  1.000000  1.000000  1.000000
                       1.000000  1.000000  1.000000  1.000000  1.000000  1.000000
                       1.000000  1.000000  1.000000  1.000000  1.000000  1.000000
                       1.000000  1.000000  0.000000  0.000000  0.000000  0.000000
                       0.000000  0.000000  0.000000  0.000000  0.000000  0.000000
                       0.000000  0.000000  0.000000  0.000000  0.000000
           occopt           3
           prtden           0
           prteig           0
          prtkden           1
            prtwf           0
            rprim      0.0000000000E+00  1.0137047334E+01  0.0000000000E+00
                       9.6126033568E+00  0.0000000000E+00  0.0000000000E+00
                       0.0000000000E+00 -5.7455806104E+00 -9.8776109362E+00
           shiftk      5.00000000E-01  5.00000000E-01  5.00000000E-01
          spgroup           1
           spinat      0.0000000000E+00  0.0000000000E+00  1.0000000000E+00
                       0.0000000000E+00  0.0000000000E+00  1.0000000000E+00
                       0.0000000000E+00  0.0000000000E+00  1.0000000000E+00
                       0.0000000000E+00  0.0000000000E+00  1.0000000000E+00
                       0.0000000000E+00  0.0000000000E+00  1.0000000000E+00
                       0.0000000000E+00  0.0000000000E+00  1.0000000000E+00
                       0.0000000000E+00  0.0000000000E+00  1.0000000000E+00
                       0.0000000000E+00  0.0000000000E+00  1.0000000000E+00
                       0.0000000000E+00  0.0000000000E+00  1.0000000000E+00
                       0.0000000000E+00  0.0000000000E+00  1.0000000000E+00
                       0.0000000000E+00  0.0000000000E+00  1.0000000000E+00
                       0.0000000000E+00  0.0000000000E+00  1.0000000000E+00
                       0.0000000000E+00  0.0000000000E+00  1.0000000000E+00
                       0.0000000000E+00  0.0000000000E+00  1.0000000000E+00
           toldfe      1.00000000E-06 Hartree
           tsmear      1.00000000E-03 Hartree
            typat      1  1  2  2  2  2  3  3  3  3  3  3  3  3
          usekden           1
              wtk        0.25000    0.25000    0.25000    0.25000
           xangst      2.3907821875E+00 -1.4290022453E+00 -2.4566930939E+00
                       0.0000000000E+00  0.0000000000E+00  0.0000000000E+00
                       2.9668985343E+00  1.1195575430E+00 -2.0185615342E+00
                       5.7611634684E-01  2.4938769586E+00 -4.3813155975E-01
                       1.8146658406E+00  1.0648747133E+00 -2.8948246537E+00
                       4.2054480281E+00 -3.0944470233E-01 -4.4752546281E+00
                       1.3988657841E+00  2.1004969827E+00 -3.3340175048E+00
                       3.7896479716E+00 -1.3450669718E+00 -4.0360617769E+00
                       3.3826985908E+00  8.3935273528E-02 -1.5793686830E+00
                       9.9191640332E-01  3.5294992280E+00 -8.7732441092E-01
                       3.4220508656E+00  2.1925805700E+00 -1.7996701795E+00
                       1.0312686781E+00  1.4208539315E+00 -6.5702291442E-01
                       1.3595135093E+00 -8.1483137821E-03 -3.1137160083E+00
                       3.7502956968E+00  7.6357832473E-01 -4.2563632734E+00
            xcart      4.5179235777E+00 -2.7004228869E+00 -4.6424771400E+00
                       0.0000000000E+00  0.0000000000E+00  0.0000000000E+00
                       5.6066256939E+00  2.1156571462E+00 -3.8145284819E+00
                       1.0887021162E+00  4.7127444608E+00 -8.2794865811E-01
                       3.4292214615E+00  2.0123215739E+00 -5.4704257981E+00
                       7.9471450391E+00 -5.8476574067E-01 -8.4570056220E+00
                       2.6434732287E+00  3.9693640403E+00 -6.3003800064E+00
                       7.1613968064E+00 -2.5418082070E+00 -7.6270514137E+00
                       6.3923739267E+00  1.5861467986E-01 -2.9845742737E+00
                       1.8744503490E+00  6.6697869272E+00 -1.6579028663E+00
                       6.4667389488E+00  4.1433768016E+00 -3.4008837687E+00
                       1.9488153711E+00  2.6850248054E+00 -1.2415933713E+00
                       2.5691082066E+00 -1.5398081493E-02 -5.8840705113E+00
                       7.0870317843E+00  1.4429539147E+00 -8.0433609088E+00
             xred      2.7020217699E-17  5.0000000000E-01  5.0000000000E-01
                       0.0000000000E+00  0.0000000000E+00  0.0000000000E+00
                       4.5488100000E-01  6.2048700000E-01  4.1082900000E-01
                       5.4511900000E-01  1.2048700000E-01  8.9171000000E-02
                       5.4511900000E-01  3.7951300000E-01  5.8917100000E-01
                       4.5488100000E-01  8.7951300000E-01  9.1082900000E-01
                       8.0116400000E-01  2.9255400000E-01  6.7855800000E-01
                       1.9883600000E-01  7.9255400000E-01  8.2144200000E-01
                       1.9883600000E-01  7.0744600000E-01  3.2144200000E-01
                       8.0116400000E-01  2.0744600000E-01  1.7855800000E-01
                       6.4242900000E-01  7.1567600000E-01  3.6627900000E-01
                       3.5757100000E-01  2.1567600000E-01  1.3372100000E-01
                       3.5757100000E-01  2.8432400000E-01  6.3372100000E-01
                       6.4242900000E-01  7.8432400000E-01  8.6627900000E-01
            znucl       28.00000    6.00000    8.00000

================================================================================

 chkinp: Checking input parameters for consistency.

================================================================================
== DATASET  1 ==================================================================
-   mpi_nproc: 8, omp_nthreads: -1 (-1 if OMP is not activated)


--- !DatasetInfo
iteration_state: {dtset: 1, }
dimensions: {natom: 14, nkpt: 4, mband: 65, nsppol: 2, nspinor: 1, nspden: 2, mpw: 150947, }
cutoff_energies: {ecut: 250.0, pawecutdg:  -1.0, }
electrons: {nelect:   1.00000000E+02, charge:   0.00000000E+00, occopt:   3.00000000E+00, tsmear:   1.00000000E-03, }
meta: {optdriver: 0, ionmov: 0, optcell: 0, iscf: 7, paral_kgb: 0, }
...

 Real(R)+Recip(G) space primitive vectors, cartesian coordinates (Bohr,Bohr^-1):
 R(1)=  0.0000000  9.5288245  0.0000000  G(1)=  0.0000000  0.1049447 -0.0610440
 R(2)=  9.0358472  0.0000000  0.0000000  G(2)=  0.1106703  0.0000000  0.0000000
 R(3)=  0.0000000 -5.4008458 -9.2849543  G(3)=  0.0000000  0.0000000 -0.1077011
 Unit cell volume ucvol=  7.9944386E+02 bohr^3
 Angles (23,13,12)=  9.00000000E+01  1.20185586E+02  9.00000000E+01 degrees

 getcut: wavevector=  0.0000  0.0000  0.0000  ngfft= 144 135 160
         ecut(hartree)=    250.000   => boxcut(ratio)=   2.08353

--- Pseudopotential description ------------------------------------------------
- pspini: atom type   1  psp file is ../Ni.pot
- pspatm: opening atomic psp file    ../Ni.pot
- Ni    ONCVPSP-4.0.1  r_core=   2.18101   2.18101   2.24723
- 28.00000  18.00000    200312                znucl, zion, pspdat
    8   11    2    4       600   0.00000      pspcod,pspxc,lmax,lloc,mmax,r2well
    5.99000000000000    0.00000000000000    0.00000000000000   rchrg,fchrg,qchrg
     nproj     2     2     2
     extension_switch     1
  pspatm : epsatm=   38.47316822
         --- l  ekb(1:nproj) -->
             0   -3.440917   -0.196078
             1   -5.406223   -1.725842
             2   -7.274254   -2.503385
 pspatm: atomic psp has been read  and splines computed

- pspini: atom type   2  psp file is ../C.pot
- pspatm: opening atomic psp file    ../C.pot
- C     ONCVPSP-4.0.1  r_core=   1.42727   1.38521
-  6.00000   4.00000    200312                znucl, zion, pspdat
    8   11    1    4       600   0.00000      pspcod,pspxc,lmax,lloc,mmax,r2well
    5.99000000000000    0.00000000000000    0.00000000000000   rchrg,fchrg,qchrg
     nproj     2     2
     extension_switch     1
  pspatm : epsatm=    2.26998732
         --- l  ekb(1:nproj) -->
             0    7.571912    0.889574
             1   -3.169338   -0.856835
 pspatm: atomic psp has been read  and splines computed

- pspini: atom type   3  psp file is ../O.pot
- pspatm: opening atomic psp file    ../O.pot
- O     ONCVPSP-4.0.1  r_core=   1.28926   1.47061
-  8.00000   6.00000    200312                znucl, zion, pspdat
    8   11    1    4       600   0.00000      pspcod,pspxc,lmax,lloc,mmax,r2well
    5.99000000000000    0.00000000000000    0.00000000000000   rchrg,fchrg,qchrg
     nproj     2     2
     extension_switch     1
  pspatm : epsatm=    3.44365635
         --- l  ekb(1:nproj) -->
             0    9.802940    1.339963
             1   -3.661294   -1.085684
 pspatm: atomic psp has been read  and splines computed

   1.13575537E+04                                ecore*ucvol(ha*bohr**3)
--------------------------------------------------------------------------------

_setup2: Arith. and geom. avg. npw (full set) are  150943.500  150943.500

================================================================================

--- !BeginCycle
iteration_state: {dtset: 1, }
solver: {iscf: 7, nstep: 60, nline: 4, wfoptalg: 0, }
tolerances: {toldfe: 1.00E-06, }
...

     iter   Etot(hartree)     deltaE(h) residm    vres2    magn
 ETOT  1  -457.02343543871    -4.57E+02 4.29E-01 1.60E+05 1.115
 ETOT  2  -458.43249074564    -1.41E+00 1.99E-02 2.50E+05 2.194
 ETOT  3  -458.93772776083    -5.05E-01 1.00E-02 1.15E+05 2.938
 ETOT  4  -458.91813928819     1.96E-02 4.34E-03 1.03E+05 3.142
 ETOT  5  -458.85283463204     6.53E-02 1.54E-03 1.10E+05 2.856
 ETOT  6  -459.02965364585    -1.77E-01 3.34E-03 4.86E+04 4.000
 ETOT  7  -459.03805507224    -8.40E-03 1.06E-03 3.42E+04 4.000
 ETOT  8  -459.05802444997    -2.00E-02 1.74E-03 8.09E+03 4.000
 ETOT  9  -459.06222571809    -4.20E-03 3.61E-04 3.62E+03 4.000
 ETOT 10  -459.06392241498    -1.70E-03 5.05E-04 1.42E+03 4.000
 ETOT 11  -459.06399796074    -7.55E-05 9.51E-05 8.60E+02 4.000
 ETOT 12  -459.06417232590    -1.74E-04 1.85E-04 1.40E+02 4.000
 ETOT 13  -459.06418085884    -8.53E-06 5.56E-05 4.63E+01 4.000
 ETOT 14  -459.06418614064    -5.28E-06 9.84E-05 1.23E+01 4.000
 ETOT 15  -459.06418881153    -2.67E-06 5.83E-05 2.51E+00 4.000
 ETOT 16  -459.06418943658    -6.25E-07 6.46E-05 1.75E+00 4.000
 ETOT 17  -459.06419006763    -6.31E-07 5.89E-05 6.42E-01 4.000

 At SCF step   17, etot is converged : 
  for the second time, diff in etot=  6.310E-07 < toldfe=  1.000E-06

Result for kinetic energy density :

--------------------------------------------------------------------------------
 Total kinetic energy density [Ha/Bohr^3]
      Maximum=    1.9662E+01  at reduced coord.    0.0000    0.4889    0.5125
      Minimum=    1.7150E-03  at reduced coord.    0.0000    0.0000    0.5000
   Integrated=    2.4066E+02
 Spin up density      [Ha/Bohr^3]
      Maximum=    1.0269E+01  at reduced coord.    0.0139    0.5259    0.5063
      Minimum=    8.4948E-04  at reduced coord.    0.0000    0.0000    0.5000
   Integrated=    1.3061E+02
 Spin down density    [Ha/Bohr^3]
      Maximum=    9.8874E+00  at reduced coord.    0.0000    0.0000    0.0000
      Minimum=    8.6547E-04  at reduced coord.    0.0000    0.0000    0.5000
   Integrated=    1.1005E+02
 Magnetization (spin up - spin down) [Ha/Bohr^3]
      Maximum=    3.0318E+00  at reduced coord.    0.0278    0.0222    0.9688
      Minimum=   -2.9241E-01  at reduced coord.    0.0000    0.0000    0.0000
   Integrated=    2.0567E+01
 Relative magnetization (=zeta, between -1 and 1)
      Maximum=    3.2215E-01  at reduced coord.    0.9306    0.4074    0.5813
      Minimum=   -1.9913E-02  at reduced coord.    0.8056    0.8963    0.7063
--------------------------------------------------------------------------------

 Cartesian components of stress tensor (hartree/bohr^3)
  sigma(1 1)=  1.46180787E-02  sigma(3 2)=  2.47184548E-04
  sigma(2 2)=  1.26643958E-02  sigma(3 1)= -8.88498936E-08
  sigma(3 3)=  1.48810493E-02  sigma(2 1)=  6.20781487E-07


--- !ResultsGS
iteration_state: {dtset: 1, }
comment   : Summary of ground state results
lattice_vectors:
- [  0.0000000,   9.5288245,   0.0000000, ]
- [  9.0358472,   0.0000000,   0.0000000, ]
- [  0.0000000,  -5.4008458,  -9.2849543, ]
lattice_lengths: [   9.52882,    9.03585,   10.74149, ]
lattice_angles: [ 90.000, 120.186,  90.000, ] # degrees, (23, 13, 12)
lattice_volume:   7.9944386E+02
convergence: {deltae: -6.310E-07, res2:  6.421E-01, residm:  5.893E-05, diffor: null, }
etotal    :  -4.59064190E+02
entropy   :   0.00000000E+00
fermie    :   2.17894647E-01
cartesian_stress_tensor: # hartree/bohr^3
- [  1.46180787E-02,   6.20781487E-07,  -8.88498936E-08, ]
- [  6.20781487E-07,   1.26643958E-02,   2.47184548E-04, ]
- [ -8.88498936E-08,   2.47184548E-04,   1.48810493E-02, ]
pressure_GPa:  -4.1350E+02
xred      :
- [  2.7020E-17,   5.0000E-01,   5.0000E-01, Ni]
- [  0.0000E+00,   0.0000E+00,   0.0000E+00, Ni]
- [  4.5488E-01,   6.2049E-01,   4.1083E-01,  C]
- [  5.4512E-01,   1.2049E-01,   8.9171E-02,  C]
- [  5.4512E-01,   3.7951E-01,   5.8917E-01,  C]
- [  4.5488E-01,   8.7951E-01,   9.1083E-01,  C]
- [  8.0116E-01,   2.9255E-01,   6.7856E-01,  O]
- [  1.9884E-01,   7.9255E-01,   8.2144E-01,  O]
- [  1.9884E-01,   7.0745E-01,   3.2144E-01,  O]
- [  8.0116E-01,   2.0745E-01,   1.7856E-01,  O]
- [  6.4243E-01,   7.1568E-01,   3.6628E-01,  O]
- [  3.5757E-01,   2.1568E-01,   1.3372E-01,  O]
- [  3.5757E-01,   2.8432E-01,   6.3372E-01,  O]
- [  6.4243E-01,   7.8432E-01,   8.6628E-01,  O]
cartesian_forces: # hartree/bohr
- [  4.78269514E-06,  -9.42247096E-06,  -6.12495357E-06, ]
- [  3.47554052E-06,   1.41215127E-05,   4.53346093E-06, ]
- [ -2.91474067E-02,  -3.23138054E-03,  -2.20455250E-02, ]
- [ -2.91811245E-02,   3.19297949E-03,   2.20489936E-02, ]
- [  2.91467776E-02,   3.24300169E-03,   2.20450571E-02, ]
- [  2.91808833E-02,  -3.21100469E-03,  -2.20476618E-02, ]
- [ -3.68493364E-02,   8.19994625E-02,  -3.82804189E-02, ]
- [ -3.62805842E-02,  -8.18916495E-02,   3.83424523E-02, ]
- [  3.68502648E-02,  -8.20066968E-02,   3.82794583E-02, ]
- [  3.62803966E-02,   8.18983195E-02,  -3.83404779E-02, ]
- [  5.17334636E-02,   8.07589647E-02,   2.40389604E-02, ]
- [  5.11703640E-02,  -8.07054774E-02,  -2.41696218E-02, ]
- [ -5.17365542E-02,  -8.07569728E-02,  -2.40407806E-02, ]
- [ -5.11754020E-02,   8.07057549E-02,   2.41711559E-02, ]
force_length_stats: {min:   1.22136067E-05, max:   9.88752691E-02, mean:   6.65724932E-02, }
...

 Integrated electronic and magnetization densities in atomic spheres:
 ---------------------------------------------------------------------
 Radius=ratsph(iatom), smearing ratsm=  0.0000. Diff(up-dn)=approximate z local magnetic moment.
 Atom    Radius    up_density   dn_density  Total(up+dn)  Diff(up-dn)
    1   2.00000     8.957862     7.267045     16.224907     1.690818
    2   2.00000     8.957384     7.266607     16.223992     1.690777
    3   2.00000     3.218720     3.185942      6.404662     0.032779
    4   2.00000     3.218648     3.185787      6.404435     0.032862
    5   2.00000     3.218720     3.185945      6.404665     0.032775
    6   2.00000     3.218649     3.185787      6.404436     0.032862
    7   2.00000     3.446106     3.343889      6.789995     0.102217
    8   2.00000     3.446511     3.344225      6.790736     0.102286
    9   2.00000     3.446112     3.343898      6.790010     0.102215
   10   2.00000     3.446523     3.344238      6.790761     0.102285
   11   2.00000     3.453847     3.398090      6.851937     0.055756
   12   2.00000     3.453977     3.398223      6.852199     0.055754
   13   2.00000     3.453856     3.398098      6.851954     0.055758
   14   2.00000     3.453990     3.398236      6.852226     0.055754
 ---------------------------------------------------------------------
  Sum:             58.390906    54.246009    112.636914     4.144897
 Total magnetization (from the atomic spheres):             4.144897
 Total magnetization (exact up - dn):                       4.000000
================================================================================

 ----iterations are completed or convergence reached----

 Mean square residual over all n,k,spin=   33.050E-08; max=  58.928E-06
 reduced coordinates (array xred) for   14 atoms
       0.000000000000      0.500000000000      0.500000000000
       0.000000000000      0.000000000000      0.000000000000
       0.454881000000      0.620487000000      0.410829000000
       0.545119000000      0.120487000000      0.089171000000
       0.545119000000      0.379513000000      0.589171000000
       0.454881000000      0.879513000000      0.910829000000
       0.801164000000      0.292554000000      0.678558000000
       0.198836000000      0.792554000000      0.821442000000
       0.198836000000      0.707446000000      0.321442000000
       0.801164000000      0.207446000000      0.178558000000
       0.642429000000      0.715676000000      0.366279000000
       0.357571000000      0.215676000000      0.133721000000
       0.357571000000      0.284324000000      0.633721000000
       0.642429000000      0.784324000000      0.866279000000
 rms dE/dt=  4.4610E-01; max dE/dt=  7.8143E-01; dE/dt below (all hartree)
    1       0.000090273553     -0.000043297758     -0.000108100963
    2      -0.000134072935     -0.000031486508      0.000118019353
    3       0.030791746515      0.263371430289     -0.222144221080
    4      -0.030424852693      0.263676098803      0.221968345986
    5      -0.030901505416     -0.263365909245      0.222201957187
    6       0.030597588660     -0.263674083332     -0.222054014514
    7      -0.781357998748      0.332964889044      0.087434169603
    8       0.780331644490      0.327825731180     -0.086276594696
    9       0.781427909161     -0.332973442283     -0.087482843528
   10      -0.780394224027     -0.327824200087      0.086330266010
   11      -0.769537512384     -0.467455751679      0.659367019664
   12       0.769028818630     -0.462367670058     -0.660292011596
   13       0.769519509096      0.467483514060     -0.659373846010
   14      -0.769030485169      0.462413028799      0.660307070274

 cartesian coordinates (angstrom) at end:
    1      2.39078218745737    -1.42900224530092    -2.45669309390355
    2      0.00000000000000     0.00000000000000     0.00000000000000
    3      2.96689853429773     1.11955754297272    -2.01856153415060
    4      0.57611634684035     2.49387695857264    -0.43813155975295
    5      1.81466584061702     1.06487471327173    -2.89482465365650
    6      4.20544802807439    -0.30944470232819    -4.47525462805415
    7      1.39886578413881     2.10049698271656    -3.33401750482601
    8      3.78964797159618    -1.34506697177302    -4.03606177688464
    9      3.38269859077594     0.08393527352789    -1.57936868298109
   10      0.99191640331856     3.52949922801747    -0.87732441092246
   11      3.42205086558149     2.19258057002656    -1.79967017948380
   12      1.03126867812411     1.42085393151880    -0.65702291441975
   13      1.35951350933326    -0.00814831378211    -3.11371600832330
   14      3.75029569679063     0.76357832472565    -4.25636327338735

 cartesian forces (hartree/bohr) at end:
    1      0.00000478269514    -0.00000942247096    -0.00000612495357
    2      0.00000347554052     0.00001412151266     0.00000453346093
    3     -0.02914740674736    -0.00323138053949    -0.02204552496861
    4     -0.02918112450612     0.00319297949009     0.02204899364738
    5      0.02914677756959     0.00324300168568     0.02204505706772
    6      0.02918088329110    -0.00321100469406    -0.02204766178393
    7     -0.03684933635716     0.08199946254923    -0.03828041891236
    8     -0.03628058416649    -0.08189164954243     0.03834245227740
    9      0.03685026478459    -0.08200669675232     0.03827945825748
   10      0.03628039655778     0.08189831946267    -0.03834047794609
   11      0.05173346356875     0.08075896469229     0.02403896039916
   12      0.05117036400161    -0.08070547743195    -0.02416962177522
   13     -0.05173655420221    -0.08075697281491    -0.02404078062304
   14     -0.05117540202975     0.08070575485349     0.02417115585275
 frms,max,avg= 4.4308110E-02 8.2006697E-02   9.081E-09 -5.126E-08 -6.987E-09 h/b

 cartesian forces (eV/Angstrom) at end:
    1      0.00024593605167    -0.00048452289714    -0.00031495774965
    2      0.00017871946444     0.00072615731653     0.00023311991419
    3     -1.49881979165245    -0.16616425429967    -1.13362637804148
    4     -1.50055362837370     0.16418959311071     1.13380474466060
    5      1.49878743803306     0.16676183761375     1.13360231761232
    6      1.50054122459990    -0.16511648628841    -1.13373625749396
    7     -1.89486890274924     4.21658154493506    -1.96845812033636
    8     -1.86562249165987    -4.21103757768638     1.97164800395349
    9      1.89491664440360    -4.21695354258328     1.96840872148029
   10      1.86561284443313     4.21138055874642    -1.97154647976394
   11      2.66024143278468     4.15279258574576     1.23613294072118
   12      2.63128569126002    -4.15004216046453    -1.24285181825749
   13     -2.66040035953392    -4.15269015930128    -1.23622654038847
   14     -2.63154475706132     4.15005642605246     1.24293070368928
 frms,max,avg= 2.2784144E+00 4.2169535E+00   4.670E-07 -2.636E-06 -3.593E-07 e/A
 length scales=  0.940000000000  0.940000000000  0.940000000000 bohr
              =  0.497426576075  0.497426576075  0.497426576075 angstroms
 Fermi (or HOMO) energy (hartree) =   0.21789   Average Vxc (hartree)=  -0.44470
 Magnetization (Bohr magneton)=  4.00000000E+00
 Total spin up =  5.20000000E+01   Total spin down =  4.80000000E+01
 Eigenvalues (hartree) for nkpt=   4  k points, SPIN UP:
 kpt#   1, nband= 65, wtk=  0.25000, kpt=  0.2500  0.2500  0.2500 (reduced coord)
  -3.77973   -3.77972   -2.30718   -2.30712   -2.30484   -2.30481   -2.29959   -2.29953
  -0.78255   -0.77023   -0.73721   -0.73520   -0.68351   -0.67826   -0.64957   -0.64788
  -0.31848   -0.29524   -0.20005   -0.18801   -0.18427   -0.17993   -0.15690   -0.14210
  -0.13090   -0.12095   -0.10401   -0.09255   -0.07398   -0.04482   -0.03564   -0.03411
  -0.01214   -0.00407    0.00202    0.01163    0.01652    0.03243    0.03981    0.05056
   0.06559    0.07358    0.08668    0.09349    0.09700    0.10500    0.11174    0.11890
   0.12181    0.13475    0.15347    0.16124    0.29817    0.31601    0.44873    0.47313
   0.48771    0.52508    0.54689    0.56726    0.59348    0.60972    0.63779    0.64319
   0.67347
      occupation numbers for kpt#   1
   1.00000    1.00000    1.00000    1.00000    1.00000    1.00000    1.00000    1.00000
   1.00000    1.00000    1.00000    1.00000    1.00000    1.00000    1.00000    1.00000
   1.00000    1.00000    1.00000    1.00000    1.00000    1.00000    1.00000    1.00000
   1.00000    1.00000    1.00000    1.00000    1.00000    1.00000    1.00000    1.00000
   1.00000    1.00000    1.00000    1.00000    1.00000    1.00000    1.00000    1.00000
   1.00000    1.00000    1.00000    1.00000    1.00000    1.00000    1.00000    1.00000
   1.00000    1.00000    1.00000    1.00000    0.00000    0.00000    0.00000    0.00000
   0.00000    0.00000    0.00000    0.00000    0.00000    0.00000    0.00000    0.00000
   0.00000
 prteigrs : prtvol=0 or 1, do not print more k-points.

 Eigenvalues (hartree) for nkpt=   4  k points, SPIN DOWN:
 kpt#   1, nband= 65, wtk=  0.25000, kpt=  0.2500  0.2500  0.2500 (reduced coord)
  -3.69912   -3.69904   -2.19155   -2.19142   -2.19101   -2.19087   -2.18835   -2.18828
  -0.77858   -0.76606   -0.73249   -0.73045   -0.67853   -0.67282   -0.64370   -0.64217
  -0.31523   -0.29179   -0.19355   -0.18265   -0.17339   -0.17212   -0.14868   -0.13435
  -0.12419   -0.11004   -0.09540   -0.08273   -0.07095   -0.03991   -0.01698   -0.00592
   0.01007    0.01648    0.01881    0.02855    0.04872    0.05068    0.05883    0.06764
   0.07516    0.09406    0.12467    0.13197    0.13524    0.13704    0.14153    0.14706
   0.27302    0.28142    0.29351    0.30376    0.31028    0.32122    0.45007    0.47475
   0.49780    0.53320    0.55362    0.57472    0.60145    0.61518    0.64264    0.64819
   0.67877
      occupation numbers for kpt#   1
   1.00000    1.00000    1.00000    1.00000    1.00000    1.00000    1.00000    1.00000
   1.00000    1.00000    1.00000    1.00000    1.00000    1.00000    1.00000    1.00000
   1.00000    1.00000    1.00000    1.00000    1.00000    1.00000    1.00000    1.00000
   1.00000    1.00000    1.00000    1.00000    1.00000    1.00000    1.00000    1.00000
   1.00000    1.00000    1.00000    1.00000    1.00000    1.00000    1.00000    1.00000
   1.00000    1.00000    1.00000    1.00000    1.00000    1.00000    1.00000    1.00000
   0.00000    0.00000    0.00000    0.00000    0.00000    0.00000    0.00000    0.00000
   0.00000    0.00000    0.00000    0.00000    0.00000    0.00000    0.00000    0.00000
   0.00000
 prteigrs : prtvol=0 or 1, do not print more k-points.


--- !EnergyTerms
iteration_state     : {dtset: 1, }
comment             : Components of total free energy in Hartree
kinetic             :  2.40662718699022E+02
hartree             :  1.59606187081884E+02
xc                  : -6.62918099156655E+01
Ewald energy        : -2.83052546331529E+02
psp_core            :  1.42068182173577E+01
local_psp           : -4.13239871599877E+02
non_local_psp       : -1.10955686218820E+02
internal            : -4.59064190067627E+02
'-kT*entropy'       :  4.26290451696855E-15
total_energy        : -4.59064190067627E+02
total_energy_eV     : -1.24917718923102E+04
band_energy         : -5.49574296302355E+01
...


 Cartesian components of stress tensor (hartree/bohr^3)
  sigma(1 1)=  1.46180787E-02  sigma(3 2)=  2.47184548E-04
  sigma(2 2)=  1.26643958E-02  sigma(3 1)= -8.88498936E-08
  sigma(3 3)=  1.48810493E-02  sigma(2 1)=  6.20781487E-07

-Cartesian components of stress tensor (GPa)         [Pressure= -4.1350E+02 GPa]
- sigma(1 1)=  4.30078652E+02  sigma(3 2)=  7.27241926E+00
- sigma(2 2)=  3.72599325E+02  sigma(3 1)= -2.61405368E-03
- sigma(3 3)=  4.37815513E+02  sigma(2 1)=  1.82640188E-02

== END DATASET(S) ==============================================================
================================================================================
  
 -outvars: echo values of variables after computation  --------
            acell      9.4000000000E-01  9.4000000000E-01  9.4000000000E-01 Bohr
              amu      5.86900000E+01  1.20110000E+01  1.59994000E+01
        autoparal           1
           diemac      1.00000000E+00
           diemix      4.00000000E-01
             ecut      2.50000000E+02 Hartree
           ecutsm      5.00000000E-01 Hartree
           etotal     -4.5906419007E+02
            fcart      4.7826951390E-06 -9.4224709602E-06 -6.1249535724E-06
                       3.4755405238E-06  1.4121512663E-05  4.5334609254E-06
                      -2.9147406747E-02 -3.2313805395E-03 -2.2045524969E-02
                      -2.9181124506E-02  3.1929794901E-03  2.2048993647E-02
                       2.9146777570E-02  3.2430016857E-03  2.2045057068E-02
                       2.9180883291E-02 -3.2110046941E-03 -2.2047661784E-02
                      -3.6849336357E-02  8.1999462549E-02 -3.8280418912E-02
                      -3.6280584166E-02 -8.1891649542E-02  3.8342452277E-02
                       3.6850264785E-02 -8.2006696752E-02  3.8279458257E-02
                       3.6280396558E-02  8.1898319463E-02 -3.8340477946E-02
                       5.1733463569E-02  8.0758964692E-02  2.4038960399E-02
                       5.1170364002E-02 -8.0705477432E-02 -2.4169621775E-02
                      -5.1736554202E-02 -8.0756972815E-02 -2.4040780623E-02
                      -5.1175402030E-02  8.0705754853E-02  2.4171155853E-02
-          fftalg         312
              ixc     -263267
              kpt      2.50000000E-01  2.50000000E-01  2.50000000E-01
                      -2.50000000E-01  2.50000000E-01  2.50000000E-01
                       2.50000000E-01 -2.50000000E-01  2.50000000E-01
                      -2.50000000E-01 -2.50000000E-01  2.50000000E-01
         kptrlatt        2    0    0      0    2    0      0    0    2
          kptrlen      1.80716943E+01
P           mkmem           1
            natom          14
            nband          65
            ngfft         144     135     160
             nkpt           4
-        np_spkpt           8
           nspden           2
           nsppol           2
            nstep          60
             nsym           1
           ntypat           3
              occ      1.000000  1.000000  1.000000  1.000000  1.000000  1.000000
                       1.000000  1.000000  1.000000  1.000000  1.000000  1.000000
                       1.000000  1.000000  1.000000  1.000000  1.000000  1.000000
                       1.000000  1.000000  1.000000  1.000000  1.000000  1.000000
                       1.000000  1.000000  1.000000  1.000000  1.000000  1.000000
                       1.000000  1.000000  1.000000  1.000000  1.000000  1.000000
                       1.000000  1.000000  1.000000  1.000000  1.000000  1.000000
                       1.000000  1.000000  1.000000  1.000000  1.000000  1.000000
                       1.000000  1.000000  1.000000  1.000000  0.000000  0.000000
                       0.000000  0.000000  0.000000  0.000000  0.000000  0.000000
                       0.000000  0.000000  0.000000  0.000000  0.000000
                       1.000000  1.000000  1.000000  1.000000  1.000000  1.000000
                       1.000000  1.000000  1.000000  1.000000  1.000000  1.000000
                       1.000000  1.000000  1.000000  1.000000  1.000000  1.000000
                       1.000000  1.000000  1.000000  1.000000  1.000000  1.000000
                       1.000000  1.000000  1.000000  1.000000  1.000000  1.000000
                       1.000000  1.000000  1.000000  1.000000  1.000000  1.000000
                       1.000000  1.000000  1.000000  1.000000  1.000000  1.000000
                       1.000000  1.000000  1.000000  1.000000  1.000000  1.000000
                       1.000000  1.000000  1.000000  1.000000  0.000000  0.000000
                       0.000000  0.000000  0.000000  0.000000  0.000000  0.000000
                       0.000000  0.000000  0.000000  0.000000  0.000000
                       1.000000  1.000000  1.000000  1.000000  1.000000  1.000000
                       1.000000  1.000000  1.000000  1.000000  1.000000  1.000000
                       1.000000  1.000000  1.000000  1.000000  1.000000  1.000000
                       1.000000  1.000000  1.000000  1.000000  1.000000  1.000000
                       1.000000  1.000000  1.000000  1.000000  1.000000  1.000000
                       1.000000  1.000000  1.000000  1.000000  1.000000  1.000000
                       1.000000  1.000000  1.000000  1.000000  1.000000  1.000000
                       1.000000  1.000000  1.000000  1.000000  1.000000  1.000000
                       1.000000  1.000000  1.000000  1.000000  0.000000  0.000000
                       0.000000  0.000000  0.000000  0.000000  0.000000  0.000000
                       0.000000  0.000000  0.000000  0.000000  0.000000
                       1.000000  1.000000  1.000000  1.000000  1.000000  1.000000
                       1.000000  1.000000  1.000000  1.000000  1.000000  1.000000
                       1.000000  1.000000  1.000000  1.000000  1.000000  1.000000
                       1.000000  1.000000  1.000000  1.000000  1.000000  1.000000
                       1.000000  1.000000  1.000000  1.000000  1.000000  1.000000
                       1.000000  1.000000  1.000000  1.000000  1.000000  1.000000
                       1.000000  1.000000  1.000000  1.000000  1.000000  1.000000
                       1.000000  1.000000  1.000000  1.000000  1.000000  1.000000
                       1.000000  1.000000  1.000000  1.000000  0.000000  0.000000
                       0.000000  0.000000  0.000000  0.000000  0.000000  0.000000
                       0.000000  0.000000  0.000000  0.000000  0.000000
                       1.000000  1.000000  1.000000  1.000000  1.000000  1.000000
                       1.000000  1.000000  1.000000  1.000000  1.000000  1.000000
                       1.000000  1.000000  1.000000  1.000000  1.000000  1.000000
                       1.000000  1.000000  1.000000  1.000000  1.000000  1.000000
                       1.000000  1.000000  1.000000  1.000000  1.000000  1.000000
                       1.000000  1.000000  1.000000  1.000000  1.000000  1.000000
                       1.000000  1.000000  1.000000  1.000000  1.000000  1.000000
                       1.000000  1.000000  1.000000  1.000000  1.000000  1.000000
                       0.000000  0.000000  0.000000  0.000000  0.000000  0.000000
                       0.000000  0.000000  0.000000  0.000000  0.000000  0.000000
                       0.000000  0.000000  0.000000  0.000000  0.000000
                       1.000000  1.000000  1.000000  1.000000  1.000000  1.000000
                       1.000000  1.000000  1.000000  1.000000  1.000000  1.000000
                       1.000000  1.000000  1.000000  1.000000  1.000000  1.000000
                       1.000000  1.000000  1.000000  1.000000  1.000000  1.000000
                       1.000000  1.000000  1.000000  1.000000  1.000000  1.000000
                       1.000000  1.000000  1.000000  1.000000  1.000000  1.000000
                       1.000000  1.000000  1.000000  1.000000  1.000000  1.000000
                       1.000000  1.000000  1.000000  1.000000  1.000000  1.000000
                       0.000000  0.000000  0.000000  0.000000  0.000000  0.000000
                       0.000000  0.000000  0.000000  0.000000  0.000000  0.000000
                       0.000000  0.000000  0.000000  0.000000  0.000000
                       1.000000  1.000000  1.000000  1.000000  1.000000  1.000000
                       1.000000  1.000000  1.000000  1.000000  1.000000  1.000000
                       1.000000  1.000000  1.000000  1.000000  1.000000  1.000000
                       1.000000  1.000000  1.000000  1.000000  1.000000  1.000000
                       1.000000  1.000000  1.000000  1.000000  1.000000  1.000000
                       1.000000  1.000000  1.000000  1.000000  1.000000  1.000000
                       1.000000  1.000000  1.000000  1.000000  1.000000  1.000000
                       1.000000  1.000000  1.000000  1.000000  1.000000  1.000000
                       0.000000  0.000000  0.000000  0.000000  0.000000  0.000000
                       0.000000  0.000000  0.000000  0.000000  0.000000  0.000000
                       0.000000  0.000000  0.000000  0.000000  0.000000
                       1.000000  1.000000  1.000000  1.000000  1.000000  1.000000
                       1.000000  1.000000  1.000000  1.000000  1.000000  1.000000
                       1.000000  1.000000  1.000000  1.000000  1.000000  1.000000
                       1.000000  1.000000  1.000000  1.000000  1.000000  1.000000
                       1.000000  1.000000  1.000000  1.000000  1.000000  1.000000
                       1.000000  1.000000  1.000000  1.000000  1.000000  1.000000
                       1.000000  1.000000  1.000000  1.000000  1.000000  1.000000
                       1.000000  1.000000  1.000000  1.000000  1.000000  1.000000
                       0.000000  0.000000  0.000000  0.000000  0.000000  0.000000
                       0.000000  0.000000  0.000000  0.000000  0.000000  0.000000
                       0.000000  0.000000  0.000000  0.000000  0.000000
           occopt           3
           prtden           0
           prteig           0
          prtkden           1
            prtwf           0
            rprim      0.0000000000E+00  1.0137047334E+01  0.0000000000E+00
                       9.6126033568E+00  0.0000000000E+00  0.0000000000E+00
                       0.0000000000E+00 -5.7455806104E+00 -9.8776109362E+00
           shiftk      5.00000000E-01  5.00000000E-01  5.00000000E-01
          spgroup           1
           spinat      0.0000000000E+00  0.0000000000E+00  1.0000000000E+00
                       0.0000000000E+00  0.0000000000E+00  1.0000000000E+00
                       0.0000000000E+00  0.0000000000E+00  1.0000000000E+00
                       0.0000000000E+00  0.0000000000E+00  1.0000000000E+00
                       0.0000000000E+00  0.0000000000E+00  1.0000000000E+00
                       0.0000000000E+00  0.0000000000E+00  1.0000000000E+00
                       0.0000000000E+00  0.0000000000E+00  1.0000000000E+00
                       0.0000000000E+00  0.0000000000E+00  1.0000000000E+00
                       0.0000000000E+00  0.0000000000E+00  1.0000000000E+00
                       0.0000000000E+00  0.0000000000E+00  1.0000000000E+00
                       0.0000000000E+00  0.0000000000E+00  1.0000000000E+00
                       0.0000000000E+00  0.0000000000E+00  1.0000000000E+00
                       0.0000000000E+00  0.0000000000E+00  1.0000000000E+00
                       0.0000000000E+00  0.0000000000E+00  1.0000000000E+00
           strten      1.4618078706E-02  1.2664395779E-02  1.4881049318E-02
                       2.4718454793E-04 -8.8849893604E-08  6.2078148725E-07
           toldfe      1.00000000E-06 Hartree
           tsmear      1.00000000E-03 Hartree
            typat      1  1  2  2  2  2  3  3  3  3  3  3  3  3
          usekden           1
              wtk        0.25000    0.25000    0.25000    0.25000
           xangst      2.3907821875E+00 -1.4290022453E+00 -2.4566930939E+00
                       0.0000000000E+00  0.0000000000E+00  0.0000000000E+00
                       2.9668985343E+00  1.1195575430E+00 -2.0185615342E+00
                       5.7611634684E-01  2.4938769586E+00 -4.3813155975E-01
                       1.8146658406E+00  1.0648747133E+00 -2.8948246537E+00
                       4.2054480281E+00 -3.0944470233E-01 -4.4752546281E+00
                       1.3988657841E+00  2.1004969827E+00 -3.3340175048E+00
                       3.7896479716E+00 -1.3450669718E+00 -4.0360617769E+00
                       3.3826985908E+00  8.3935273528E-02 -1.5793686830E+00
                       9.9191640332E-01  3.5294992280E+00 -8.7732441092E-01
                       3.4220508656E+00  2.1925805700E+00 -1.7996701795E+00
                       1.0312686781E+00  1.4208539315E+00 -6.5702291442E-01
                       1.3595135093E+00 -8.1483137821E-03 -3.1137160083E+00
                       3.7502956968E+00  7.6357832473E-01 -4.2563632734E+00
            xcart      4.5179235777E+00 -2.7004228869E+00 -4.6424771400E+00
                       0.0000000000E+00  0.0000000000E+00  0.0000000000E+00
                       5.6066256939E+00  2.1156571462E+00 -3.8145284819E+00
                       1.0887021162E+00  4.7127444608E+00 -8.2794865811E-01
                       3.4292214615E+00  2.0123215739E+00 -5.4704257981E+00
                       7.9471450391E+00 -5.8476574067E-01 -8.4570056220E+00
                       2.6434732287E+00  3.9693640403E+00 -6.3003800064E+00
                       7.1613968064E+00 -2.5418082070E+00 -7.6270514137E+00
                       6.3923739267E+00  1.5861467986E-01 -2.9845742737E+00
                       1.8744503490E+00  6.6697869272E+00 -1.6579028663E+00
                       6.4667389488E+00  4.1433768016E+00 -3.4008837687E+00
                       1.9488153711E+00  2.6850248054E+00 -1.2415933713E+00
                       2.5691082066E+00 -1.5398081493E-02 -5.8840705113E+00
                       7.0870317843E+00  1.4429539147E+00 -8.0433609088E+00
             xred      2.7020217699E-17  5.0000000000E-01  5.0000000000E-01
                       0.0000000000E+00  0.0000000000E+00  0.0000000000E+00
                       4.5488100000E-01  6.2048700000E-01  4.1082900000E-01
                       5.4511900000E-01  1.2048700000E-01  8.9171000000E-02
                       5.4511900000E-01  3.7951300000E-01  5.8917100000E-01
                       4.5488100000E-01  8.7951300000E-01  9.1082900000E-01
                       8.0116400000E-01  2.9255400000E-01  6.7855800000E-01
                       1.9883600000E-01  7.9255400000E-01  8.2144200000E-01
                       1.9883600000E-01  7.0744600000E-01  3.2144200000E-01
                       8.0116400000E-01  2.0744600000E-01  1.7855800000E-01
                       6.4242900000E-01  7.1567600000E-01  3.6627900000E-01
                       3.5757100000E-01  2.1567600000E-01  1.3372100000E-01
                       3.5757100000E-01  2.8432400000E-01  6.3372100000E-01
                       6.4242900000E-01  7.8432400000E-01  8.6627900000E-01
            znucl       28.00000    6.00000    8.00000

================================================================================


- Timing analysis has been suppressed with timopt=0



================================================================================

 Suggested references for the acknowledgment of ABINIT usage.

 The users of ABINIT have little formal obligations with respect to the ABINIT group
 (those specified in the GNU General Public License, http://www.gnu.org/copyleft/gpl.txt).
 However, it is common practice in the scientific literature,
 to acknowledge the efforts of people that have made the research possible.
 In this spirit, please find below suggested citations of work written by ABINIT developers,
 corresponding to implementations inside of ABINIT that you have used in the present run.
 Note also that it will be of great value to readers of publications presenting these results,
 to read papers enabling them to understand the theoretical formalism and details
 of the ABINIT implementation.
 For information on why they are suggested, see also https://docs.abinit.org/theory/acknowledgments.
-
- [1] Libxc: A library of exchange and correlation functionals for density functional theory.
- M.A.L. Marques, M.J.T. Oliveira, T. Burnus, Computer Physics Communications 183, 2227 (2012).
- Comment: to be cited when LibXC is used (negative value of ixc)
- Strong suggestion to cite this paper.
- DOI and bibtex: see https://docs.abinit.org/theory/bibliography/#marques2012
-
- [2] The Abinit project: Impact, environment and recent developments.
- Computer Phys. Comm. 248, 107042 (2020).
- X.Gonze, B. Amadon, G. Antonius, F.Arnardi, L.Baguet, J.-M.Beuken,
- J.Bieder, F.Bottin, J.Bouchet, E.Bousquet, N.Brouwer, F.Bruneval,
- G.Brunin, T.Cavignac, J.-B. Charraud, Wei Chen, M.Cote, S.Cottenier,
- J.Denier, G.Geneste, Ph.Ghosez, M.Giantomassi, Y.Gillet, O.Gingras,
- D.R.Hamann, G.Hautier, Xu He, N.Helbig, N.Holzwarth, Y.Jia, F.Jollet,
- W.Lafargue-Dit-Hauret, K.Lejaeghere, M.A.L.Marques, A.Martin, C.Martins,
- H.P.C. Miranda, F.Naccarato, K. Persson, G.Petretto, V.Planes, Y.Pouillon,
- S.Prokhorenko, F.Ricci, G.-M.Rignanese, A.H.Romero, M.M.Schmitt, M.Torrent,
- M.J.van Setten, B.Van Troeye, M.J.Verstraete, G.Zerah and J.W.Zwanzig
- Comment: the fifth generic paper describing the ABINIT project.
- Note that a version of this paper, that is not formatted for Computer Phys. Comm. 
- is available at https://www.abinit.org/sites/default/files/ABINIT20.pdf .
- The licence allows the authors to put it on the Web.
- DOI and bibtex: see https://docs.abinit.org/theory/bibliography/#gonze2020
-
- [3] Optimized norm-conserving Vanderbilt pseudopotentials.
- D.R. Hamann, Phys. Rev. B 88, 085117 (2013).
- Comment: Some pseudopotential generated using the ONCVPSP code were used.
- DOI and bibtex: see https://docs.abinit.org/theory/bibliography/#hamann2013
-
- [4] ABINIT: Overview, and focus on selected capabilities
- J. Chem. Phys. 152, 124102 (2020).
- A. Romero, D.C. Allan, B. Amadon, G. Antonius, T. Applencourt, L.Baguet,
- J.Bieder, F.Bottin, J.Bouchet, E.Bousquet, F.Bruneval,
- G.Brunin, D.Caliste, M.Cote,
- J.Denier, C. Dreyer, Ph.Ghosez, M.Giantomassi, Y.Gillet, O.Gingras,
- D.R.Hamann, G.Hautier, F.Jollet, G. Jomard,
- A.Martin, 
- H.P.C. Miranda, F.Naccarato, G.Petretto, N.A. Pike, V.Planes,
- S.Prokhorenko, T. Rangel, F.Ricci, G.-M.Rignanese, M.Royo, M.Stengel, M.Torrent,
- M.J.van Setten, B.Van Troeye, M.J.Verstraete, J.Wiktor, J.W.Zwanziger, and X.Gonze.
- Comment: a global overview of ABINIT, with focus on selected capabilities .
- Note that a version of this paper, that is not formatted for J. Chem. Phys 
- is available at https://www.abinit.org/sites/default/files/ABINIT20_JPC.pdf .
- The licence allows the authors to put it on the Web.
- DOI and bibtex: see https://docs.abinit.org/theory/bibliography/#romero2020
-
- [5] Recent developments in the ABINIT software package.
- Computer Phys. Comm. 205, 106 (2016).
- X.Gonze, F.Jollet, F.Abreu Araujo, D.Adams, B.Amadon, T.Applencourt,
- C.Audouze, J.-M.Beuken, J.Bieder, A.Bokhanchuk, E.Bousquet, F.Bruneval
- D.Caliste, M.Cote, F.Dahm, F.Da Pieve, M.Delaveau, M.Di Gennaro,
- B.Dorado, C.Espejo, G.Geneste, L.Genovese, A.Gerossier, M.Giantomassi,
- Y.Gillet, D.R.Hamann, L.He, G.Jomard, J.Laflamme Janssen, S.Le Roux,
- A.Levitt, A.Lherbier, F.Liu, I.Lukacevic, A.Martin, C.Martins,
- M.J.T.Oliveira, S.Ponce, Y.Pouillon, T.Rangel, G.-M.Rignanese,
- A.H.Romero, B.Rousseau, O.Rubel, A.A.Shukri, M.Stankovski, M.Torrent,
- M.J.Van Setten, B.Van Troeye, M.J.Verstraete, D.Waroquier, J.Wiktor,
- B.Xu, A.Zhou, J.W.Zwanziger.
- Comment: the fourth generic paper describing the ABINIT project.
- Note that a version of this paper, that is not formatted for Computer Phys. Comm. 
- is available at https://www.abinit.org/sites/default/files/ABINIT16.pdf .
- The licence allows the authors to put it on the Web.
- DOI and bibtex: see https://docs.abinit.org/theory/bibliography/#gonze2016
-
- Proc.   0 individual time (sec): cpu=       3760.4  wall=       3772.2

================================================================================

 Calculation completed.
.Delivered   0 WARNINGs and   0 COMMENTs to log file.
+Overall time at end (sec) : cpu=      30088.5  wall=      30177.3
