
     Program PWSCF v.7.0 starts on  6Apr2023 at 16:39:53 

     This program is part of the open-source Quantum ESPRESSO suite
     for quantum simulation of materials; please cite
         "P. Giannozzi et al., J. Phys.:Condens. Matter 21 395502 (2009);
         "P. Giannozzi et al., J. Phys.:Condens. Matter 29 465901 (2017);
         "P. Giannozzi et al., J. Chem. Phys. 152 154105 (2020);
          URL http://www.quantum-espresso.org", 
     in publications or presentations arising from this work. More details at
     http://www.quantum-espresso.org/quote

     Parallel version (MPI), running on   480 processors

     MPI processes distributed on    40 nodes
     R & G space division:  proc/nbgrp/npool/nimage =     480
     177662 MiB available memory on the printing compute node when the environment starts

     Reading input from pw.inp
Warning: card &CELL ignored
Warning: card / ignored

     Current dimensions of program PWSCF are:
     Max number of different atomic species (ntypx) = 10
     Max number of k-points (npk) =  40000
     Max angular momentum in pseudopotentials (lmaxx) =  4
     Message from routine cell_base_init:
     DEPRECATED: use true lattice parameter, not A to a.u. conversion factor

     IMPORTANT: XC functional enforced from input :
     Exchange-correlation= VDW-DF
                           (   1   4   4   0   1   0   0)
     Any further DFT definition will be discarded
     Please, verify this is what you really want


     gamma-point specific algorithms are used

     Subspace diagonalization in iterative solution of the eigenvalue problem:
     one sub-group per band group will be used
     scalapack distributed-memory algorithm (size of sub-group: 21* 21 procs)


     Parallelization info
     --------------------
     sticks:   dense  smooth     PW     G-vecs:    dense   smooth      PW
     Min          62      62     14                 7246     7246     878
     Max          64      64     16                 7292     7292     924
     Sum       30679   30679   7661              3493573  3493573  436733

     Using Pencil Decomposition



     bravais-lattice index     =            0
     lattice parameter (alat)  =       1.0000  a.u.
     unit-cell volume          =   36138.3093 (a.u.)^3
     number of atoms/cell      =          254
     number of atomic types    =            1
     number of electrons       =      1016.00
     number of Kohn-Sham states=          614
     kinetic-energy cutoff     =      80.0000  Ry
     charge density cutoff     =     320.0000  Ry
     scf convergence threshold =      1.0E-01
     mixing beta               =       0.5000
     number of iterations used =            8  TF        mixing
     Exchange-correlation= VDW-DF
                           (   1   4   4   0   1   0   0)

     celldm(1)=   1.000000  celldm(2)=   0.000000  celldm(3)=   0.000000
     celldm(4)=   0.000000  celldm(5)=   0.000000  celldm(6)=   0.000000

     crystal axes: (cart. coord. in units of alat)
               a(1) = (  37.295632   0.000000   0.000000 )  
               a(2) = (   0.000000  32.298965   0.000000 )  
               a(3) = (   0.000000   0.000000  30.000000 )  

     reciprocal axes: (cart. coord. in units 2 pi/alat)
               b(1) = (  0.026813  0.000000  0.000000 )  
               b(2) = (  0.000000  0.030961  0.000000 )  
               b(3) = (  0.000000  0.000000  0.033333 )  


     PseudoPot. # 1 for C  read from file:
     .././06_C_4_1.2_1.2_pbe_n_v1.0.upf
     MD5 check sum: 7e0e17a2517474b8bea671dc4b65026c
     Pseudo is Norm-conserving + core correction, Zval =  4.0
     Generated using ONCVPSP code by D. R. Hamann
     Using radial grid of 1246 points,  4 beta functions with: 
                l(1) =   0
                l(2) =   0
                l(3) =   1
                l(4) =   1

     atomic species   valence    mass     pseudopotential
        C              4.00    12.00000     C ( 1.00)

     Starting magnetic structure 
     atomic species   magnetization
        C            1.000

     No symmetry found


                                    s                        frac. trans.

      isym =  1     identity                                     

 cryst.   s( 1) = (     1          0          0      )
                  (     0          1          0      )
                  (     0          0          1      )

 cart.    s( 1) = (  1.0000000  0.0000000  0.0000000 )
                  (  0.0000000  1.0000000  0.0000000 )
                  (  0.0000000  0.0000000  1.0000000 )


   Cartesian axes

     site n.     atom                  positions (alat units)
         1           C   tau(   1) = (   0.0000000   0.0000000  18.0000000  )
         2           C   tau(   2) = (   0.0000000   2.6915535  18.0000000  )
         3           C   tau(   3) = (   2.3309770   4.0373706  18.0000000  )
         4           C   tau(   4) = (   2.3309770   1.3457364  12.0000000  )
         5           C   tau(   5) = (   2.3309770   4.0373706  12.0000000  )
         6           C   tau(   6) = (   4.6619540   5.3831070  12.0000000  )
         7           C   tau(   7) = (   4.6619540   8.0747412  12.0000000  )
         8           C   tau(   8) = (   0.0000000   8.0747412  18.0000000  )
         9           C   tau(   9) = (   0.0000000  10.7662947  18.0000000  )
        10           C   tau(  10) = (   2.3309770  12.1121118  18.0000000  )
        11           C   tau(  11) = (   2.3309770  15.0727964  18.0000000  )
        12           C   tau(  12) = (   2.3309770   9.4204776  12.0000000  )
        13           C   tau(  13) = (   2.3309770  12.1121118  12.0000000  )
        14           C   tau(  14) = (   4.6619540  13.4578482  12.0000000  )
        15           C   tau(  15) = (   4.6619540  16.1494824  12.0000000  )
        16           C   tau(  16) = (   0.0000000  16.1494824  18.0000000  )
        17           C   tau(  17) = (   0.0000000  18.8410359  18.0000000  )
        18           C   tau(  18) = (   2.3309770  20.1868530  18.0000000  )
        19           C   tau(  19) = (   2.3309770  23.1475376  18.0000000  )
        20           C   tau(  20) = (   2.3309770  17.4952188  12.0000000  )
        21           C   tau(  21) = (   2.3309770  20.1868530  12.0000000  )
        22           C   tau(  22) = (   4.6619540  21.5325894  12.0000000  )
        23           C   tau(  23) = (   4.6619540  24.2242236  12.0000000  )
        24           C   tau(  24) = (   0.0000000  24.2242236  18.0000000  )
        25           C   tau(  25) = (   0.0000000  26.9157771  18.0000000  )
        26           C   tau(  26) = (   2.3309770  28.2615942  18.0000000  )
        27           C   tau(  27) = (   2.3309770  31.2222788  18.0000000  )
        28           C   tau(  28) = (   2.3309770  25.5699600  12.0000000  )
        29           C   tau(  29) = (   2.3309770  28.2615942  12.0000000  )
        30           C   tau(  30) = (   4.6619540  29.6073306  12.0000000  )
        31           C   tau(  31) = (   4.6619540  32.2989648  12.0000000  )
        32           C   tau(  32) = (   4.6619540   0.0000000  18.0000000  )
        33           C   tau(  33) = (   4.6619540   2.6915535  18.0000000  )
        34           C   tau(  34) = (   6.9929310   4.0373706  18.0000000  )
        35           C   tau(  35) = (   6.9929310   6.9980552  18.0000000  )
        36           C   tau(  36) = (   6.9929310   1.3457364  12.0000000  )
        37           C   tau(  37) = (   6.9929310   4.0373706  12.0000000  )
        38           C   tau(  38) = (   9.3239080   5.3831070  12.0000000  )
        39           C   tau(  39) = (   9.3239080   8.0747412  12.0000000  )
        40           C   tau(  40) = (   4.6619540   8.0747412  18.0000000  )
        41           C   tau(  41) = (   4.6619540  10.7662947  18.0000000  )
        42           C   tau(  42) = (   6.9929310  12.1121118  18.0000000  )
        43           C   tau(  43) = (   6.9929310  15.0727964  18.0000000  )
        44           C   tau(  44) = (   6.9929310   9.4204776  12.0000000  )
        45           C   tau(  45) = (   6.9929310  12.1121118  12.0000000  )
        46           C   tau(  46) = (   9.3239080  13.4578482  12.0000000  )
        47           C   tau(  47) = (   9.3239080  16.1494824  12.0000000  )
        48           C   tau(  48) = (   4.6619540  16.1494824  18.0000000  )
        49           C   tau(  49) = (   4.6619540  18.8410359  18.0000000  )
        50           C   tau(  50) = (   6.9929310  20.1868530  18.0000000  )
        51           C   tau(  51) = (   6.9929310  23.1475376  18.0000000  )
        52           C   tau(  52) = (   6.9929310  17.4952188  12.0000000  )
        53           C   tau(  53) = (   6.9929310  20.1868530  12.0000000  )
        54           C   tau(  54) = (   9.3239080  21.5325894  12.0000000  )
        55           C   tau(  55) = (   9.3239080  24.2242236  12.0000000  )
        56           C   tau(  56) = (   4.6619540  24.2242236  18.0000000  )
        57           C   tau(  57) = (   4.6619540  26.9157771  18.0000000  )
        58           C   tau(  58) = (   6.9929310  28.2615942  18.0000000  )
        59           C   tau(  59) = (   6.9929310  31.2222788  18.0000000  )
        60           C   tau(  60) = (   6.9929310  25.5699600  12.0000000  )
        61           C   tau(  61) = (   6.9929310  28.2615942  12.0000000  )
        62           C   tau(  62) = (   9.3239080  29.6073306  12.0000000  )
        63           C   tau(  63) = (   9.3239080  32.2989648  12.0000000  )
        64           C   tau(  64) = (   9.3239080   0.0000000  18.0000000  )
        65           C   tau(  65) = (   9.3239080   2.6915535  18.0000000  )
        66           C   tau(  66) = (  11.6548850   4.0373706  18.0000000  )
        67           C   tau(  67) = (  11.6548850   6.9980552  18.0000000  )
        68           C   tau(  68) = (  11.6548850   1.3457364  12.0000000  )
        69           C   tau(  69) = (  11.6548850   4.0373706  12.0000000  )
        70           C   tau(  70) = (  13.9858620   5.3831070  12.0000000  )
        71           C   tau(  71) = (  13.9858620   8.0747412  12.0000000  )
        72           C   tau(  72) = (   9.3239080   8.0747412  18.0000000  )
        73           C   tau(  73) = (   9.3239080  10.7662947  18.0000000  )
        74           C   tau(  74) = (  11.6548850  12.1121118  18.0000000  )
        75           C   tau(  75) = (  11.6548850  15.0727964  18.0000000  )
        76           C   tau(  76) = (  11.6548850   9.4204776  12.0000000  )
        77           C   tau(  77) = (  11.6548850  12.1121118  12.0000000  )
        78           C   tau(  78) = (  13.9858620  13.4578482  12.0000000  )
        79           C   tau(  79) = (  13.9858620  16.1494824  12.0000000  )
        80           C   tau(  80) = (   9.3239080  16.1494824  18.0000000  )
        81           C   tau(  81) = (   9.3239080  18.8410359  18.0000000  )
        82           C   tau(  82) = (  11.6548850  20.1868530  18.0000000  )
        83           C   tau(  83) = (  11.6548850  23.1475376  18.0000000  )
        84           C   tau(  84) = (  11.6548850  17.4952188  12.0000000  )
        85           C   tau(  85) = (  11.6548850  20.1868530  12.0000000  )
        86           C   tau(  86) = (  13.9858620  21.5325894  12.0000000  )
        87           C   tau(  87) = (  13.9858620  24.2242236  12.0000000  )
        88           C   tau(  88) = (   9.3239080  24.2242236  18.0000000  )
        89           C   tau(  89) = (   9.3239080  26.9157771  18.0000000  )
        90           C   tau(  90) = (  11.6548850  28.2615942  18.0000000  )
        91           C   tau(  91) = (  11.6548850  31.2222788  18.0000000  )
        92           C   tau(  92) = (  11.6548850  25.5699600  12.0000000  )
        93           C   tau(  93) = (  11.6548850  28.2615942  12.0000000  )
        94           C   tau(  94) = (  13.9858620  29.6073306  12.0000000  )
        95           C   tau(  95) = (  13.9858620  32.2989648  12.0000000  )
        96           C   tau(  96) = (  13.9858620   0.0000000  18.0000000  )
        97           C   tau(  97) = (  13.9858620   2.6915535  18.0000000  )
        98           C   tau(  98) = (  16.3168390   4.0373706  18.0000000  )
        99           C   tau(  99) = (  16.3168390   6.9980552  18.0000000  )
       100           C   tau( 100) = (  16.3168390   1.3457364  12.0000000  )
       101           C   tau( 101) = (  16.3168390   4.0373706  12.0000000  )
       102           C   tau( 102) = (  18.6478161   5.3831070  12.0000000  )
       103           C   tau( 103) = (  18.6478161   8.0747412  12.0000000  )
       104           C   tau( 104) = (  13.9858620   8.0747412  18.0000000  )
       105           C   tau( 105) = (  13.9858620  10.7662947  18.0000000  )
       106           C   tau( 106) = (  16.3168390  12.1121118  18.0000000  )
       107           C   tau( 107) = (  16.3168390  15.0727964  18.0000000  )
       108           C   tau( 108) = (  16.3168390   9.4204776  12.0000000  )
       109           C   tau( 109) = (  16.3168390  12.1121118  12.0000000  )
       110           C   tau( 110) = (  18.6478161  13.4578482  12.0000000  )
       111           C   tau( 111) = (  18.6478161  16.1494824  12.0000000  )
       112           C   tau( 112) = (  13.9858620  16.1494824  18.0000000  )
       113           C   tau( 113) = (  13.9858620  18.8410359  18.0000000  )
       114           C   tau( 114) = (  16.3168390  20.1868530  18.0000000  )
       115           C   tau( 115) = (  16.3168390  23.1475376  18.0000000  )
       116           C   tau( 116) = (  16.3168390  17.4952188  12.0000000  )
       117           C   tau( 117) = (  16.3168390  20.1868530  12.0000000  )
       118           C   tau( 118) = (  18.6478161  21.5325894  12.0000000  )
       119           C   tau( 119) = (  18.6478161  24.2242236  12.0000000  )
       120           C   tau( 120) = (  13.9858620  24.2242236  18.0000000  )
       121           C   tau( 121) = (  13.9858620  26.9157771  18.0000000  )
       122           C   tau( 122) = (  16.3168390  28.2615942  18.0000000  )
       123           C   tau( 123) = (  16.3168390  31.2222788  18.0000000  )
       124           C   tau( 124) = (  16.3168390  25.5699600  12.0000000  )
       125           C   tau( 125) = (  16.3168390  28.2615942  12.0000000  )
       126           C   tau( 126) = (  18.6478161  29.6073306  12.0000000  )
       127           C   tau( 127) = (  18.6478161  32.2989648  12.0000000  )
       128           C   tau( 128) = (  18.6478161   0.0000000  18.0000000  )
       129           C   tau( 129) = (  18.6478161   2.6915535  18.0000000  )
       130           C   tau( 130) = (  20.9787931   4.0373706  18.0000000  )
       131           C   tau( 131) = (  20.9787931   6.9980552  18.0000000  )
       132           C   tau( 132) = (  20.9787931   1.3457364  12.0000000  )
       133           C   tau( 133) = (  20.9787931   4.0373706  12.0000000  )
       134           C   tau( 134) = (  23.3097701   5.3831070  12.0000000  )
       135           C   tau( 135) = (  23.3097701   8.0747412  12.0000000  )
       136           C   tau( 136) = (  18.6478161   8.0747412  18.0000000  )
       137           C   tau( 137) = (  18.6478161  10.7662947  18.0000000  )
       138           C   tau( 138) = (  20.9787931  12.1121118  18.0000000  )
       139           C   tau( 139) = (  20.9787931  15.0727964  18.0000000  )
       140           C   tau( 140) = (  20.9787931   9.4204776  12.0000000  )
       141           C   tau( 141) = (  20.9787931  12.1121118  12.0000000  )
       142           C   tau( 142) = (  23.3097701  13.4578482  12.0000000  )
       143           C   tau( 143) = (  23.3097701  16.1494824  12.0000000  )
       144           C   tau( 144) = (  18.6478161  16.1494824  18.0000000  )
       145           C   tau( 145) = (  18.6478161  18.8410359  18.0000000  )
       146           C   tau( 146) = (  20.9787931  20.1868530  18.0000000  )
       147           C   tau( 147) = (  20.9787931  23.1475376  18.0000000  )
       148           C   tau( 148) = (  20.9787931  17.4952188  12.0000000  )
       149           C   tau( 149) = (  20.9787931  20.1868530  12.0000000  )
       150           C   tau( 150) = (  23.3097701  21.5325894  12.0000000  )
       151           C   tau( 151) = (  23.3097701  24.2242236  12.0000000  )
       152           C   tau( 152) = (  18.6478161  24.2242236  18.0000000  )
       153           C   tau( 153) = (  18.6478161  26.9157771  18.0000000  )
       154           C   tau( 154) = (  20.9787931  28.2615942  18.0000000  )
       155           C   tau( 155) = (  20.9787931  31.2222788  18.0000000  )
       156           C   tau( 156) = (  20.9787931  25.5699600  12.0000000  )
       157           C   tau( 157) = (  20.9787931  28.2615942  12.0000000  )
       158           C   tau( 158) = (  23.3097701  29.6073306  12.0000000  )
       159           C   tau( 159) = (  23.3097701  32.2989648  12.0000000  )
       160           C   tau( 160) = (  23.3097701   0.0000000  18.0000000  )
       161           C   tau( 161) = (  23.3097701   2.6915535  18.0000000  )
       162           C   tau( 162) = (  25.6407471   4.0373706  18.0000000  )
       163           C   tau( 163) = (  25.6407471   6.9980552  18.0000000  )
       164           C   tau( 164) = (  25.6407471   1.3457364  12.0000000  )
       165           C   tau( 165) = (  25.6407471   4.0373706  12.0000000  )
       166           C   tau( 166) = (  27.9717241   5.3831070  12.0000000  )
       167           C   tau( 167) = (  27.9717241   8.0747412  12.0000000  )
       168           C   tau( 168) = (  23.3097701   8.0747412  18.0000000  )
       169           C   tau( 169) = (  23.3097701  10.7662947  18.0000000  )
       170           C   tau( 170) = (  25.6407471  12.1121118  18.0000000  )
       171           C   tau( 171) = (  25.6407471  15.0727964  18.0000000  )
       172           C   tau( 172) = (  25.6407471   9.4204776  12.0000000  )
       173           C   tau( 173) = (  25.6407471  12.1121118  12.0000000  )
       174           C   tau( 174) = (  27.9717241  13.4578482  12.0000000  )
       175           C   tau( 175) = (  27.9717241  16.1494824  12.0000000  )
       176           C   tau( 176) = (  23.3097701  16.1494824  18.0000000  )
       177           C   tau( 177) = (  23.3097701  18.8410359  18.0000000  )
       178           C   tau( 178) = (  25.6407471  20.1868530  18.0000000  )
       179           C   tau( 179) = (  25.6407471  23.1475376  18.0000000  )
       180           C   tau( 180) = (  25.6407471  17.4952188  12.0000000  )
       181           C   tau( 181) = (  25.6407471  20.1868530  12.0000000  )
       182           C   tau( 182) = (  27.9717241  21.5325894  12.0000000  )
       183           C   tau( 183) = (  27.9717241  24.2242236  12.0000000  )
       184           C   tau( 184) = (  23.3097701  24.2242236  18.0000000  )
       185           C   tau( 185) = (  23.3097701  26.9157771  18.0000000  )
       186           C   tau( 186) = (  25.6407471  28.2615942  18.0000000  )
       187           C   tau( 187) = (  25.6407471  31.2222788  18.0000000  )
       188           C   tau( 188) = (  25.6407471  25.5699600  12.0000000  )
       189           C   tau( 189) = (  25.6407471  28.2615942  12.0000000  )
       190           C   tau( 190) = (  27.9717241  29.6073306  12.0000000  )
       191           C   tau( 191) = (  27.9717241  32.2989648  12.0000000  )
       192           C   tau( 192) = (  27.9717241   0.0000000  18.0000000  )
       193           C   tau( 193) = (  27.9717241   2.6915535  18.0000000  )
       194           C   tau( 194) = (  30.3027011   4.0373706  18.0000000  )
       195           C   tau( 195) = (  30.3027011   6.9980552  18.0000000  )
       196           C   tau( 196) = (  30.3027011   1.3457364  12.0000000  )
       197           C   tau( 197) = (  30.3027011   4.0373706  12.0000000  )
       198           C   tau( 198) = (  32.6336781   5.3831070  12.0000000  )
       199           C   tau( 199) = (  32.6336781   8.0747412  12.0000000  )
       200           C   tau( 200) = (  27.9717241   8.0747412  18.0000000  )
       201           C   tau( 201) = (  27.9717241  10.7662947  18.0000000  )
       202           C   tau( 202) = (  30.3027011  12.1121118  18.0000000  )
       203           C   tau( 203) = (  30.3027011  15.0727964  18.0000000  )
       204           C   tau( 204) = (  30.3027011   9.4204776  12.0000000  )
       205           C   tau( 205) = (  30.3027011  12.1121118  12.0000000  )
       206           C   tau( 206) = (  32.6336781  13.4578482  12.0000000  )
       207           C   tau( 207) = (  32.6336781  16.1494824  12.0000000  )
       208           C   tau( 208) = (  27.9717241  16.1494824  18.0000000  )
       209           C   tau( 209) = (  27.9717241  18.8410359  18.0000000  )
       210           C   tau( 210) = (  30.3027011  20.1868530  18.0000000  )
       211           C   tau( 211) = (  30.3027011  23.1475376  18.0000000  )
       212           C   tau( 212) = (  30.3027011  17.4952188  12.0000000  )
       213           C   tau( 213) = (  30.3027011  20.1868530  12.0000000  )
       214           C   tau( 214) = (  32.6336781  21.5325894  12.0000000  )
       215           C   tau( 215) = (  32.6336781  24.2242236  12.0000000  )
       216           C   tau( 216) = (  27.9717241  24.2242236  18.0000000  )
       217           C   tau( 217) = (  27.9717241  26.9157771  18.0000000  )
       218           C   tau( 218) = (  30.3027011  28.2615942  18.0000000  )
       219           C   tau( 219) = (  30.3027011  31.2222788  18.0000000  )
       220           C   tau( 220) = (  30.3027011  25.5699600  12.0000000  )
       221           C   tau( 221) = (  30.3027011  28.2615942  12.0000000  )
       222           C   tau( 222) = (  32.6336781  29.6073306  12.0000000  )
       223           C   tau( 223) = (  32.6336781  32.2989648  12.0000000  )
       224           C   tau( 224) = (  32.6336781   0.0000000  18.0000000  )
       225           C   tau( 225) = (  32.6336781   2.6915535  18.0000000  )
       226           C   tau( 226) = (  34.9646551   4.0373706  18.0000000  )
       227           C   tau( 227) = (  34.9646551   6.9980552  18.0000000  )
       228           C   tau( 228) = (  34.9646551   1.3457364  12.0000000  )
       229           C   tau( 229) = (  34.9646551   4.0373706  12.0000000  )
       230           C   tau( 230) = (  37.2956321   5.3831070  12.0000000  )
       231           C   tau( 231) = (  37.2956321   8.0747412  12.0000000  )
       232           C   tau( 232) = (  32.6336781   8.0747412  18.0000000  )
       233           C   tau( 233) = (  32.6336781  10.7662947  18.0000000  )
       234           C   tau( 234) = (  34.9646551  12.1121118  18.0000000  )
       235           C   tau( 235) = (  34.9646551  15.0727964  18.0000000  )
       236           C   tau( 236) = (  34.9646551   9.4204776  12.0000000  )
       237           C   tau( 237) = (  34.9646551  12.1121118  12.0000000  )
       238           C   tau( 238) = (  37.2956321  13.4578482  12.0000000  )
       239           C   tau( 239) = (  37.2956321  16.1494824  12.0000000  )
       240           C   tau( 240) = (  32.6336781  16.1494824  18.0000000  )
       241           C   tau( 241) = (  32.6336781  18.8410359  18.0000000  )
       242           C   tau( 242) = (  34.9646551  20.1868530  18.0000000  )
       243           C   tau( 243) = (  34.9646551  23.1475376  18.0000000  )
       244           C   tau( 244) = (  34.9646551  17.4952188  12.0000000  )
       245           C   tau( 245) = (  34.9646551  20.1868530  12.0000000  )
       246           C   tau( 246) = (  37.2956321  21.5325894  12.0000000  )
       247           C   tau( 247) = (  37.2956321  24.2242236  12.0000000  )
       248           C   tau( 248) = (  32.6336781  24.2242236  18.0000000  )
       249           C   tau( 249) = (  32.6336781  26.9157771  18.0000000  )
       250           C   tau( 250) = (  34.9646551  28.2615942  18.0000000  )
       251           C   tau( 251) = (  34.9646551  31.2222788  18.0000000  )
       252           C   tau( 252) = (  34.9646551  28.2615942  12.0000000  )
       253           C   tau( 253) = (  37.2956321  29.6073306  12.0000000  )
       254           C   tau( 254) = (  37.2956321  32.2989648  12.0000000  )

   Crystallographic axes

     site n.     atom                  positions (cryst. coord.)
         1           C   tau(   1) = (  0.0000000  0.0000000  0.6000000  )
         2           C   tau(   2) = (  0.0000000  0.0833325  0.6000000  )
         3           C   tau(   3) = (  0.0625000  0.1250000  0.6000000  )
         4           C   tau(   4) = (  0.0625000  0.0416650  0.4000000  )
         5           C   tau(   5) = (  0.0625000  0.1250000  0.4000000  )
         6           C   tau(   6) = (  0.1250000  0.1666650  0.4000000  )
         7           C   tau(   7) = (  0.1250000  0.2500000  0.4000000  )
         8           C   tau(   8) = (  0.0000000  0.2500000  0.6000000  )
         9           C   tau(   9) = (  0.0000000  0.3333325  0.6000000  )
        10           C   tau(  10) = (  0.0625000  0.3750000  0.6000000  )
        11           C   tau(  11) = (  0.0625000  0.4666650  0.6000000  )
        12           C   tau(  12) = (  0.0625000  0.2916650  0.4000000  )
        13           C   tau(  13) = (  0.0625000  0.3750000  0.4000000  )
        14           C   tau(  14) = (  0.1250000  0.4166650  0.4000000  )
        15           C   tau(  15) = (  0.1250000  0.5000000  0.4000000  )
        16           C   tau(  16) = (  0.0000000  0.5000000  0.6000000  )
        17           C   tau(  17) = (  0.0000000  0.5833325  0.6000000  )
        18           C   tau(  18) = (  0.0625000  0.6250000  0.6000000  )
        19           C   tau(  19) = (  0.0625000  0.7166650  0.6000000  )
        20           C   tau(  20) = (  0.0625000  0.5416650  0.4000000  )
        21           C   tau(  21) = (  0.0625000  0.6250000  0.4000000  )
        22           C   tau(  22) = (  0.1250000  0.6666650  0.4000000  )
        23           C   tau(  23) = (  0.1250000  0.7500000  0.4000000  )
        24           C   tau(  24) = (  0.0000000  0.7500000  0.6000000  )
        25           C   tau(  25) = (  0.0000000  0.8333325  0.6000000  )
        26           C   tau(  26) = (  0.0625000  0.8750000  0.6000000  )
        27           C   tau(  27) = (  0.0625000  0.9666650  0.6000000  )
        28           C   tau(  28) = (  0.0625000  0.7916650  0.4000000  )
        29           C   tau(  29) = (  0.0625000  0.8750000  0.4000000  )
        30           C   tau(  30) = (  0.1250000  0.9166650  0.4000000  )
        31           C   tau(  31) = (  0.1250000  1.0000000  0.4000000  )
        32           C   tau(  32) = (  0.1250000  0.0000000  0.6000000  )
        33           C   tau(  33) = (  0.1250000  0.0833325  0.6000000  )
        34           C   tau(  34) = (  0.1875000  0.1250000  0.6000000  )
        35           C   tau(  35) = (  0.1875000  0.2166650  0.6000000  )
        36           C   tau(  36) = (  0.1875000  0.0416650  0.4000000  )
        37           C   tau(  37) = (  0.1875000  0.1250000  0.4000000  )
        38           C   tau(  38) = (  0.2500000  0.1666650  0.4000000  )
        39           C   tau(  39) = (  0.2500000  0.2500000  0.4000000  )
        40           C   tau(  40) = (  0.1250000  0.2500000  0.6000000  )
        41           C   tau(  41) = (  0.1250000  0.3333325  0.6000000  )
        42           C   tau(  42) = (  0.1875000  0.3750000  0.6000000  )
        43           C   tau(  43) = (  0.1875000  0.4666650  0.6000000  )
        44           C   tau(  44) = (  0.1875000  0.2916650  0.4000000  )
        45           C   tau(  45) = (  0.1875000  0.3750000  0.4000000  )
        46           C   tau(  46) = (  0.2500000  0.4166650  0.4000000  )
        47           C   tau(  47) = (  0.2500000  0.5000000  0.4000000  )
        48           C   tau(  48) = (  0.1250000  0.5000000  0.6000000  )
        49           C   tau(  49) = (  0.1250000  0.5833325  0.6000000  )
        50           C   tau(  50) = (  0.1875000  0.6250000  0.6000000  )
        51           C   tau(  51) = (  0.1875000  0.7166650  0.6000000  )
        52           C   tau(  52) = (  0.1875000  0.5416650  0.4000000  )
        53           C   tau(  53) = (  0.1875000  0.6250000  0.4000000  )
        54           C   tau(  54) = (  0.2500000  0.6666650  0.4000000  )
        55           C   tau(  55) = (  0.2500000  0.7500000  0.4000000  )
        56           C   tau(  56) = (  0.1250000  0.7500000  0.6000000  )
        57           C   tau(  57) = (  0.1250000  0.8333325  0.6000000  )
        58           C   tau(  58) = (  0.1875000  0.8750000  0.6000000  )
        59           C   tau(  59) = (  0.1875000  0.9666650  0.6000000  )
        60           C   tau(  60) = (  0.1875000  0.7916650  0.4000000  )
        61           C   tau(  61) = (  0.1875000  0.8750000  0.4000000  )
        62           C   tau(  62) = (  0.2500000  0.9166650  0.4000000  )
        63           C   tau(  63) = (  0.2500000  1.0000000  0.4000000  )
        64           C   tau(  64) = (  0.2500000  0.0000000  0.6000000  )
        65           C   tau(  65) = (  0.2500000  0.0833325  0.6000000  )
        66           C   tau(  66) = (  0.3125000  0.1250000  0.6000000  )
        67           C   tau(  67) = (  0.3125000  0.2166650  0.6000000  )
        68           C   tau(  68) = (  0.3125000  0.0416650  0.4000000  )
        69           C   tau(  69) = (  0.3125000  0.1250000  0.4000000  )
        70           C   tau(  70) = (  0.3750000  0.1666650  0.4000000  )
        71           C   tau(  71) = (  0.3750000  0.2500000  0.4000000  )
        72           C   tau(  72) = (  0.2500000  0.2500000  0.6000000  )
        73           C   tau(  73) = (  0.2500000  0.3333325  0.6000000  )
        74           C   tau(  74) = (  0.3125000  0.3750000  0.6000000  )
        75           C   tau(  75) = (  0.3125000  0.4666650  0.6000000  )
        76           C   tau(  76) = (  0.3125000  0.2916650  0.4000000  )
        77           C   tau(  77) = (  0.3125000  0.3750000  0.4000000  )
        78           C   tau(  78) = (  0.3750000  0.4166650  0.4000000  )
        79           C   tau(  79) = (  0.3750000  0.5000000  0.4000000  )
        80           C   tau(  80) = (  0.2500000  0.5000000  0.6000000  )
        81           C   tau(  81) = (  0.2500000  0.5833325  0.6000000  )
        82           C   tau(  82) = (  0.3125000  0.6250000  0.6000000  )
        83           C   tau(  83) = (  0.3125000  0.7166650  0.6000000  )
        84           C   tau(  84) = (  0.3125000  0.5416650  0.4000000  )
        85           C   tau(  85) = (  0.3125000  0.6250000  0.4000000  )
        86           C   tau(  86) = (  0.3750000  0.6666650  0.4000000  )
        87           C   tau(  87) = (  0.3750000  0.7500000  0.4000000  )
        88           C   tau(  88) = (  0.2500000  0.7500000  0.6000000  )
        89           C   tau(  89) = (  0.2500000  0.8333325  0.6000000  )
        90           C   tau(  90) = (  0.3125000  0.8750000  0.6000000  )
        91           C   tau(  91) = (  0.3125000  0.9666650  0.6000000  )
        92           C   tau(  92) = (  0.3125000  0.7916650  0.4000000  )
        93           C   tau(  93) = (  0.3125000  0.8750000  0.4000000  )
        94           C   tau(  94) = (  0.3750000  0.9166650  0.4000000  )
        95           C   tau(  95) = (  0.3750000  1.0000000  0.4000000  )
        96           C   tau(  96) = (  0.3750000  0.0000000  0.6000000  )
        97           C   tau(  97) = (  0.3750000  0.0833325  0.6000000  )
        98           C   tau(  98) = (  0.4375000  0.1250000  0.6000000  )
        99           C   tau(  99) = (  0.4375000  0.2166650  0.6000000  )
       100           C   tau( 100) = (  0.4375000  0.0416650  0.4000000  )
       101           C   tau( 101) = (  0.4375000  0.1250000  0.4000000  )
       102           C   tau( 102) = (  0.5000000  0.1666650  0.4000000  )
       103           C   tau( 103) = (  0.5000000  0.2500000  0.4000000  )
       104           C   tau( 104) = (  0.3750000  0.2500000  0.6000000  )
       105           C   tau( 105) = (  0.3750000  0.3333325  0.6000000  )
       106           C   tau( 106) = (  0.4375000  0.3750000  0.6000000  )
       107           C   tau( 107) = (  0.4375000  0.4666650  0.6000000  )
       108           C   tau( 108) = (  0.4375000  0.2916650  0.4000000  )
       109           C   tau( 109) = (  0.4375000  0.3750000  0.4000000  )
       110           C   tau( 110) = (  0.5000000  0.4166650  0.4000000  )
       111           C   tau( 111) = (  0.5000000  0.5000000  0.4000000  )
       112           C   tau( 112) = (  0.3750000  0.5000000  0.6000000  )
       113           C   tau( 113) = (  0.3750000  0.5833325  0.6000000  )
       114           C   tau( 114) = (  0.4375000  0.6250000  0.6000000  )
       115           C   tau( 115) = (  0.4375000  0.7166650  0.6000000  )
       116           C   tau( 116) = (  0.4375000  0.5416650  0.4000000  )
       117           C   tau( 117) = (  0.4375000  0.6250000  0.4000000  )
       118           C   tau( 118) = (  0.5000000  0.6666650  0.4000000  )
       119           C   tau( 119) = (  0.5000000  0.7500000  0.4000000  )
       120           C   tau( 120) = (  0.3750000  0.7500000  0.6000000  )
       121           C   tau( 121) = (  0.3750000  0.8333325  0.6000000  )
       122           C   tau( 122) = (  0.4375000  0.8750000  0.6000000  )
       123           C   tau( 123) = (  0.4375000  0.9666650  0.6000000  )
       124           C   tau( 124) = (  0.4375000  0.7916650  0.4000000  )
       125           C   tau( 125) = (  0.4375000  0.8750000  0.4000000  )
       126           C   tau( 126) = (  0.5000000  0.9166650  0.4000000  )
       127           C   tau( 127) = (  0.5000000  1.0000000  0.4000000  )
       128           C   tau( 128) = (  0.5000000  0.0000000  0.6000000  )
       129           C   tau( 129) = (  0.5000000  0.0833325  0.6000000  )
       130           C   tau( 130) = (  0.5625000  0.1250000  0.6000000  )
       131           C   tau( 131) = (  0.5625000  0.2166650  0.6000000  )
       132           C   tau( 132) = (  0.5625000  0.0416650  0.4000000  )
       133           C   tau( 133) = (  0.5625000  0.1250000  0.4000000  )
       134           C   tau( 134) = (  0.6250000  0.1666650  0.4000000  )
       135           C   tau( 135) = (  0.6250000  0.2500000  0.4000000  )
       136           C   tau( 136) = (  0.5000000  0.2500000  0.6000000  )
       137           C   tau( 137) = (  0.5000000  0.3333325  0.6000000  )
       138           C   tau( 138) = (  0.5625000  0.3750000  0.6000000  )
       139           C   tau( 139) = (  0.5625000  0.4666650  0.6000000  )
       140           C   tau( 140) = (  0.5625000  0.2916650  0.4000000  )
       141           C   tau( 141) = (  0.5625000  0.3750000  0.4000000  )
       142           C   tau( 142) = (  0.6250000  0.4166650  0.4000000  )
       143           C   tau( 143) = (  0.6250000  0.5000000  0.4000000  )
       144           C   tau( 144) = (  0.5000000  0.5000000  0.6000000  )
       145           C   tau( 145) = (  0.5000000  0.5833325  0.6000000  )
       146           C   tau( 146) = (  0.5625000  0.6250000  0.6000000  )
       147           C   tau( 147) = (  0.5625000  0.7166650  0.6000000  )
       148           C   tau( 148) = (  0.5625000  0.5416650  0.4000000  )
       149           C   tau( 149) = (  0.5625000  0.6250000  0.4000000  )
       150           C   tau( 150) = (  0.6250000  0.6666650  0.4000000  )
       151           C   tau( 151) = (  0.6250000  0.7500000  0.4000000  )
       152           C   tau( 152) = (  0.5000000  0.7500000  0.6000000  )
       153           C   tau( 153) = (  0.5000000  0.8333325  0.6000000  )
       154           C   tau( 154) = (  0.5625000  0.8750000  0.6000000  )
       155           C   tau( 155) = (  0.5625000  0.9666650  0.6000000  )
       156           C   tau( 156) = (  0.5625000  0.7916650  0.4000000  )
       157           C   tau( 157) = (  0.5625000  0.8750000  0.4000000  )
       158           C   tau( 158) = (  0.6250000  0.9166650  0.4000000  )
       159           C   tau( 159) = (  0.6250000  1.0000000  0.4000000  )
       160           C   tau( 160) = (  0.6250000  0.0000000  0.6000000  )
       161           C   tau( 161) = (  0.6250000  0.0833325  0.6000000  )
       162           C   tau( 162) = (  0.6875000  0.1250000  0.6000000  )
       163           C   tau( 163) = (  0.6875000  0.2166650  0.6000000  )
       164           C   tau( 164) = (  0.6875000  0.0416650  0.4000000  )
       165           C   tau( 165) = (  0.6875000  0.1250000  0.4000000  )
       166           C   tau( 166) = (  0.7500000  0.1666650  0.4000000  )
       167           C   tau( 167) = (  0.7500000  0.2500000  0.4000000  )
       168           C   tau( 168) = (  0.6250000  0.2500000  0.6000000  )
       169           C   tau( 169) = (  0.6250000  0.3333325  0.6000000  )
       170           C   tau( 170) = (  0.6875000  0.3750000  0.6000000  )
       171           C   tau( 171) = (  0.6875000  0.4666650  0.6000000  )
       172           C   tau( 172) = (  0.6875000  0.2916650  0.4000000  )
       173           C   tau( 173) = (  0.6875000  0.3750000  0.4000000  )
       174           C   tau( 174) = (  0.7500000  0.4166650  0.4000000  )
       175           C   tau( 175) = (  0.7500000  0.5000000  0.4000000  )
       176           C   tau( 176) = (  0.6250000  0.5000000  0.6000000  )
       177           C   tau( 177) = (  0.6250000  0.5833325  0.6000000  )
       178           C   tau( 178) = (  0.6875000  0.6250000  0.6000000  )
       179           C   tau( 179) = (  0.6875000  0.7166650  0.6000000  )
       180           C   tau( 180) = (  0.6875000  0.5416650  0.4000000  )
       181           C   tau( 181) = (  0.6875000  0.6250000  0.4000000  )
       182           C   tau( 182) = (  0.7500000  0.6666650  0.4000000  )
       183           C   tau( 183) = (  0.7500000  0.7500000  0.4000000  )
       184           C   tau( 184) = (  0.6250000  0.7500000  0.6000000  )
       185           C   tau( 185) = (  0.6250000  0.8333325  0.6000000  )
       186           C   tau( 186) = (  0.6875000  0.8750000  0.6000000  )
       187           C   tau( 187) = (  0.6875000  0.9666650  0.6000000  )
       188           C   tau( 188) = (  0.6875000  0.7916650  0.4000000  )
       189           C   tau( 189) = (  0.6875000  0.8750000  0.4000000  )
       190           C   tau( 190) = (  0.7500000  0.9166650  0.4000000  )
       191           C   tau( 191) = (  0.7500000  1.0000000  0.4000000  )
       192           C   tau( 192) = (  0.7500000  0.0000000  0.6000000  )
       193           C   tau( 193) = (  0.7500000  0.0833325  0.6000000  )
       194           C   tau( 194) = (  0.8125000  0.1250000  0.6000000  )
       195           C   tau( 195) = (  0.8125000  0.2166650  0.6000000  )
       196           C   tau( 196) = (  0.8125000  0.0416650  0.4000000  )
       197           C   tau( 197) = (  0.8125000  0.1250000  0.4000000  )
       198           C   tau( 198) = (  0.8750000  0.1666650  0.4000000  )
       199           C   tau( 199) = (  0.8750000  0.2500000  0.4000000  )
       200           C   tau( 200) = (  0.7500000  0.2500000  0.6000000  )
       201           C   tau( 201) = (  0.7500000  0.3333325  0.6000000  )
       202           C   tau( 202) = (  0.8125000  0.3750000  0.6000000  )
       203           C   tau( 203) = (  0.8125000  0.4666650  0.6000000  )
       204           C   tau( 204) = (  0.8125000  0.2916650  0.4000000  )
       205           C   tau( 205) = (  0.8125000  0.3750000  0.4000000  )
       206           C   tau( 206) = (  0.8750000  0.4166650  0.4000000  )
       207           C   tau( 207) = (  0.8750000  0.5000000  0.4000000  )
       208           C   tau( 208) = (  0.7500000  0.5000000  0.6000000  )
       209           C   tau( 209) = (  0.7500000  0.5833325  0.6000000  )
       210           C   tau( 210) = (  0.8125000  0.6250000  0.6000000  )
       211           C   tau( 211) = (  0.8125000  0.7166650  0.6000000  )
       212           C   tau( 212) = (  0.8125000  0.5416650  0.4000000  )
       213           C   tau( 213) = (  0.8125000  0.6250000  0.4000000  )
       214           C   tau( 214) = (  0.8750000  0.6666650  0.4000000  )
       215           C   tau( 215) = (  0.8750000  0.7500000  0.4000000  )
       216           C   tau( 216) = (  0.7500000  0.7500000  0.6000000  )
       217           C   tau( 217) = (  0.7500000  0.8333325  0.6000000  )
       218           C   tau( 218) = (  0.8125000  0.8750000  0.6000000  )
       219           C   tau( 219) = (  0.8125000  0.9666650  0.6000000  )
       220           C   tau( 220) = (  0.8125000  0.7916650  0.4000000  )
       221           C   tau( 221) = (  0.8125000  0.8750000  0.4000000  )
       222           C   tau( 222) = (  0.8750000  0.9166650  0.4000000  )
       223           C   tau( 223) = (  0.8750000  1.0000000  0.4000000  )
       224           C   tau( 224) = (  0.8750000  0.0000000  0.6000000  )
       225           C   tau( 225) = (  0.8750000  0.0833325  0.6000000  )
       226           C   tau( 226) = (  0.9375000  0.1250000  0.6000000  )
       227           C   tau( 227) = (  0.9375000  0.2166650  0.6000000  )
       228           C   tau( 228) = (  0.9375000  0.0416650  0.4000000  )
       229           C   tau( 229) = (  0.9375000  0.1250000  0.4000000  )
       230           C   tau( 230) = (  1.0000000  0.1666650  0.4000000  )
       231           C   tau( 231) = (  1.0000000  0.2500000  0.4000000  )
       232           C   tau( 232) = (  0.8750000  0.2500000  0.6000000  )
       233           C   tau( 233) = (  0.8750000  0.3333325  0.6000000  )
       234           C   tau( 234) = (  0.9375000  0.3750000  0.6000000  )
       235           C   tau( 235) = (  0.9375000  0.4666650  0.6000000  )
       236           C   tau( 236) = (  0.9375000  0.2916650  0.4000000  )
       237           C   tau( 237) = (  0.9375000  0.3750000  0.4000000  )
       238           C   tau( 238) = (  1.0000000  0.4166650  0.4000000  )
       239           C   tau( 239) = (  1.0000000  0.5000000  0.4000000  )
       240           C   tau( 240) = (  0.8750000  0.5000000  0.6000000  )
       241           C   tau( 241) = (  0.8750000  0.5833325  0.6000000  )
       242           C   tau( 242) = (  0.9375000  0.6250000  0.6000000  )
       243           C   tau( 243) = (  0.9375000  0.7166650  0.6000000  )
       244           C   tau( 244) = (  0.9375000  0.5416650  0.4000000  )
       245           C   tau( 245) = (  0.9375000  0.6250000  0.4000000  )
       246           C   tau( 246) = (  1.0000000  0.6666650  0.4000000  )
       247           C   tau( 247) = (  1.0000000  0.7500000  0.4000000  )
       248           C   tau( 248) = (  0.8750000  0.7500000  0.6000000  )
       249           C   tau( 249) = (  0.8750000  0.8333325  0.6000000  )
       250           C   tau( 250) = (  0.9375000  0.8750000  0.6000000  )
       251           C   tau( 251) = (  0.9375000  0.9666650  0.6000000  )
       252           C   tau( 252) = (  0.9375000  0.8750000  0.4000000  )
       253           C   tau( 253) = (  1.0000000  0.9166650  0.4000000  )
       254           C   tau( 254) = (  1.0000000  1.0000000  0.4000000  )

     number of k points=     1  Fermi-Dirac smearing, width (Ry)=  0.0020
                       cart. coord. in units 2pi/alat
        k(    1) = (   0.0000000   0.0000000   0.0000000), wk =   1.0000000

                       cryst. coord.
        k(    1) = (   0.0000000   0.0000000   0.0000000), wk =   1.0000000

     Dense  grid:  1746787 G-vectors     FFT dimensions: ( 216, 192, 180)

     Dynamical RAM for                 wfc:       4.25 MB

     Dynamical RAM for     wfc (w. buffer):      12.76 MB

     Dynamical RAM for           str. fact:       0.06 MB

     Dynamical RAM for           local pot:       0.00 MB

     Dynamical RAM for          nlocal pot:      14.08 MB

     Dynamical RAM for                qrad:       0.41 MB

     Dynamical RAM for          rho,v,vnew:       2.23 MB

     Dynamical RAM for               rhoin:       0.74 MB

     Dynamical RAM for            rho*nmix:       1.78 MB

     Dynamical RAM for           G-vectors:       0.24 MB

     Dynamical RAM for          h,s,v(r/c):       0.08 MB

     Dynamical RAM for          <psi|beta>:       9.52 MB

     Dynamical RAM for                 psi:       8.51 MB

     Dynamical RAM for                hpsi:       8.51 MB

     Dynamical RAM for      wfcinit/wfcrot:      17.14 MB

     Estimated static dynamical RAM per process >      32.52 MB

     Estimated max dynamical RAM per process >      60.91 MB

     Estimated total dynamical RAM >      28.55 GB
     Generating pointlists ...
     new r_m :   1.0591 (alat units)  1.0591 (a.u.) for type    1

     Initial potential from superposition of free atoms

     starting charge    1015.9887, renormalised to    1016.0000

     negative rho (up, down):  9.422E-04 1.283E-13


     %%%%%%%%%%%%%%%%%%%%%%%%%%%%%%%%%%%%%%%%%%%%%%%%%%%%%%%%%%%%%%%%%%%%%%%%
     %                                                                      %
     % You are using vdW-DF, which was implemented by the Thonhauser group. %
     % Please cite the following two papers that made this development      %
     % possible and the two reviews that describe the various versions:     %
     %                                                                      %
     %   T. Thonhauser et al., PRL 115, 136402 (2015).                      %
     %   T. Thonhauser et al., PRB 76, 125112 (2007).                       %
     %   K. Berland et al., Rep. Prog. Phys. 78, 066501 (2015).             %
     %   D.C. Langreth et al., J. Phys.: Condens. Matter 21, 084203 (2009). %
     %                                                                      %
     %                                                                      %
     % If you are calculating the stress with vdW-DF, please also cite:     %
     %                                                                      %
     %   R. Sabatini et al., J. Phys.: Condens. Matter 24, 424209 (2012).   %
     %                                                                      %
     %%%%%%%%%%%%%%%%%%%%%%%%%%%%%%%%%%%%%%%%%%%%%%%%%%%%%%%%%%%%%%%%%%%%%%%%


     Carrying out vdW-DF run using the following parameters:
     Nqs    =  20  Npoints =  1024  r_max =  100.000
     q_mesh =  0.00001000  0.04494208  0.09755937  0.15916263
               0.23128650  0.31572767  0.41458969  0.53033537
               0.66584808  0.82450364  1.01025438  1.22772762
               1.48234092  1.78043706  2.12944203  2.53805004
               3.01644009  3.57652955  4.23227104  5.00000000


     -----------------------------------------------
     Non-local corr. energy    =       6.87924146 Ry
     -----------------------------------------------

     Starting wfcs are random

     total cpu time spent up to now is        7.5 secs

     per-process dynamical memory:   124.0 Mb

     Self-consistent Calculation

     iteration #  1     ecut=    80.00 Ry     beta= 0.50
     Davidson diagonalization with overlap

---- Real-time Memory Report at c_bands before calling an iterative solver
           238 MiB given to the printing process from OS
           121 MiB allocation reported by mallinfo(arena+hblkhd)
        176118 MiB available memory on the node where the printing process lives
------------------
     ethr =  1.00E-02,  avg # of iterations = 18.0

     negative rho (up, down):  2.269E-05 5.694E-05


     -----------------------------------------------
     Non-local corr. energy    =      10.38642734 Ry
     -----------------------------------------------


     total cpu time spent up to now is       56.0 secs

     total energy              =   -3038.01395008 Ry
     estimated scf accuracy    <      61.21645594 Ry

     total magnetization       =   124.70 Bohr mag/cell
     absolute magnetization    =   126.13 Bohr mag/cell

     iteration #  2     ecut=    80.00 Ry     beta= 0.50
     Davidson diagonalization with overlap

---- Real-time Memory Report at c_bands before calling an iterative solver
           257 MiB given to the printing process from OS
           134 MiB allocation reported by mallinfo(arena+hblkhd)
        175952 MiB available memory on the node where the printing process lives
------------------
     ethr =  6.03E-03,  avg # of iterations =  1.0


     -----------------------------------------------
     Non-local corr. energy    =      12.80042794 Ry
     -----------------------------------------------


     total cpu time spent up to now is       64.5 secs

     total energy              =   -3074.05702477 Ry
     estimated scf accuracy    <      20.95273059 Ry

     total magnetization       =    58.57 Bohr mag/cell
     absolute magnetization    =    60.40 Bohr mag/cell

     iteration #  3     ecut=    80.00 Ry     beta= 0.50
     Davidson diagonalization with overlap

---- Real-time Memory Report at c_bands before calling an iterative solver
           266 MiB given to the printing process from OS
           143 MiB allocation reported by mallinfo(arena+hblkhd)
        175826 MiB available memory on the node where the printing process lives
------------------
     ethr =  2.06E-03,  avg # of iterations =  2.0


     -----------------------------------------------
     Non-local corr. energy    =      12.92097012 Ry
     -----------------------------------------------


     total cpu time spent up to now is       74.9 secs

     total energy              =   -3080.61808099 Ry
     estimated scf accuracy    <       1.46400961 Ry

     total magnetization       =     5.77 Bohr mag/cell
     absolute magnetization    =    10.90 Bohr mag/cell

     iteration #  4     ecut=    80.00 Ry     beta= 0.50
     Davidson diagonalization with overlap

---- Real-time Memory Report at c_bands before calling an iterative solver
           267 MiB given to the printing process from OS
           143 MiB allocation reported by mallinfo(arena+hblkhd)
        173576 MiB available memory on the node where the printing process lives
------------------
     c_bands:  2 eigenvalues not converged
     ethr =  1.44E-04,  avg # of iterations = 17.0


     -----------------------------------------------
     Non-local corr. energy    =      12.97316700 Ry
     -----------------------------------------------


     total cpu time spent up to now is       98.1 secs

     total energy              =   -3080.86263978 Ry
     estimated scf accuracy    <       1.00600248 Ry

     total magnetization       =     5.01 Bohr mag/cell
     absolute magnetization    =     8.99 Bohr mag/cell

     iteration #  5     ecut=    80.00 Ry     beta= 0.50
     Davidson diagonalization with overlap

---- Real-time Memory Report at c_bands before calling an iterative solver
           267 MiB given to the printing process from OS
           143 MiB allocation reported by mallinfo(arena+hblkhd)
        172345 MiB available memory on the node where the printing process lives
------------------
     ethr =  9.90E-05,  avg # of iterations =  5.0


     -----------------------------------------------
     Non-local corr. energy    =      13.10464844 Ry
     -----------------------------------------------


     total cpu time spent up to now is      110.1 secs

     total energy              =   -3080.80701573 Ry
     estimated scf accuracy    <       0.63600490 Ry

     total magnetization       =     3.74 Bohr mag/cell
     absolute magnetization    =     6.59 Bohr mag/cell

     iteration #  6     ecut=    80.00 Ry     beta= 0.50
     Davidson diagonalization with overlap

---- Real-time Memory Report at c_bands before calling an iterative solver
           267 MiB given to the printing process from OS
           143 MiB allocation reported by mallinfo(arena+hblkhd)
        172354 MiB available memory on the node where the printing process lives
------------------
     ethr =  6.26E-05,  avg # of iterations =  4.0


     -----------------------------------------------
     Non-local corr. energy    =      13.13182829 Ry
     -----------------------------------------------


     total cpu time spent up to now is      122.5 secs

     total energy              =   -3080.81550919 Ry
     estimated scf accuracy    <       0.47134532 Ry

     total magnetization       =     1.98 Bohr mag/cell
     absolute magnetization    =     3.97 Bohr mag/cell

     iteration #  7     ecut=    80.00 Ry     beta= 0.50
     Davidson diagonalization with overlap

---- Real-time Memory Report at c_bands before calling an iterative solver
           267 MiB given to the printing process from OS
           143 MiB allocation reported by mallinfo(arena+hblkhd)
        172354 MiB available memory on the node where the printing process lives
------------------
     ethr =  4.64E-05,  avg # of iterations =  4.0


     -----------------------------------------------
     Non-local corr. energy    =      13.19595459 Ry
     -----------------------------------------------


     total cpu time spent up to now is      134.9 secs

     total energy              =   -3080.71445110 Ry
     estimated scf accuracy    <       0.35078333 Ry

     total magnetization       =     1.82 Bohr mag/cell
     absolute magnetization    =     4.23 Bohr mag/cell

     iteration #  8     ecut=    80.00 Ry     beta= 0.50
     Davidson diagonalization with overlap

---- Real-time Memory Report at c_bands before calling an iterative solver
           267 MiB given to the printing process from OS
           143 MiB allocation reported by mallinfo(arena+hblkhd)
        172357 MiB available memory on the node where the printing process lives
------------------
     ethr =  3.45E-05,  avg # of iterations = 14.0


     -----------------------------------------------
     Non-local corr. energy    =      13.22359409 Ry
     -----------------------------------------------


     total cpu time spent up to now is      149.4 secs

     total energy              =   -3080.73521983 Ry
     estimated scf accuracy    <       0.36268275 Ry

     total magnetization       =     2.03 Bohr mag/cell
     absolute magnetization    =     4.93 Bohr mag/cell

     iteration #  9     ecut=    80.00 Ry     beta= 0.50
     Davidson diagonalization with overlap

---- Real-time Memory Report at c_bands before calling an iterative solver
           267 MiB given to the printing process from OS
           143 MiB allocation reported by mallinfo(arena+hblkhd)
        175807 MiB available memory on the node where the printing process lives
------------------
     ethr =  3.45E-05,  avg # of iterations =  8.0

     negative rho (up, down):  5.028E-04 5.076E-04


     -----------------------------------------------
     Non-local corr. energy    =      13.24481267 Ry
     -----------------------------------------------


     total cpu time spent up to now is      160.6 secs

     total energy              =   -3080.73120317 Ry
     estimated scf accuracy    <       0.22446680 Ry

     total magnetization       =     1.45 Bohr mag/cell
     absolute magnetization    =     3.97 Bohr mag/cell

     iteration # 10     ecut=    80.00 Ry     beta= 0.50
     Davidson diagonalization with overlap

---- Real-time Memory Report at c_bands before calling an iterative solver
           267 MiB given to the printing process from OS
           143 MiB allocation reported by mallinfo(arena+hblkhd)
        172608 MiB available memory on the node where the printing process lives
------------------
     c_bands:  2 eigenvalues not converged
     c_bands:  3 eigenvalues not converged
     ethr =  2.21E-05,  avg # of iterations = 40.0

     negative rho (up, down):  2.130E-02 2.028E-02


     -----------------------------------------------
     Non-local corr. energy    =      13.22412922 Ry
     -----------------------------------------------


     total cpu time spent up to now is      203.7 secs

     total energy              =   -3080.70188673 Ry
     estimated scf accuracy    <       0.13869694 Ry

     total magnetization       =     1.96 Bohr mag/cell
     absolute magnetization    =     4.02 Bohr mag/cell

     iteration # 11     ecut=    80.00 Ry     beta= 0.50
     Davidson diagonalization with overlap

---- Real-time Memory Report at c_bands before calling an iterative solver
           267 MiB given to the printing process from OS
           143 MiB allocation reported by mallinfo(arena+hblkhd)
        171462 MiB available memory on the node where the printing process lives
------------------
     c_bands:  4 eigenvalues not converged
     c_bands:  1 eigenvalues not converged
     ethr =  1.37E-05,  avg # of iterations = 30.0

     negative rho (up, down):  9.541E-02 9.366E-02


     -----------------------------------------------
     Non-local corr. energy    =      13.20570814 Ry
     -----------------------------------------------


     total cpu time spent up to now is      228.6 secs

     total energy              =   -3080.69719478 Ry
     estimated scf accuracy    <       0.13015055 Ry

     total magnetization       =     2.03 Bohr mag/cell
     absolute magnetization    =     3.87 Bohr mag/cell

     iteration # 12     ecut=    80.00 Ry     beta= 0.50
     Davidson diagonalization with overlap

---- Real-time Memory Report at c_bands before calling an iterative solver
           267 MiB given to the printing process from OS
           143 MiB allocation reported by mallinfo(arena+hblkhd)
        175830 MiB available memory on the node where the printing process lives
------------------
     ethr =  1.28E-05,  avg # of iterations =  5.5


     -----------------------------------------------
     Non-local corr. energy    =      13.17896262 Ry
     -----------------------------------------------


     Magnetic moment per site  (integrated on atomic sphere of radius R)
     atom   1 (R=1.059)  charge=  1.5974  magn= -0.0053
     atom   2 (R=1.059)  charge=  1.5402  magn=  0.0038
     atom   3 (R=1.059)  charge=  1.4256  magn= -0.1305
     atom   4 (R=1.059)  charge=  1.5403  magn= -0.0015
     atom   5 (R=1.059)  charge=  1.5396  magn=  0.0015
     atom   6 (R=1.059)  charge=  1.5397  magn= -0.0006
     atom   7 (R=1.059)  charge=  1.5384  magn=  0.0012
     atom   8 (R=1.059)  charge=  1.4780  magn=  0.2453
     atom   9 (R=1.059)  charge=  1.5355  magn=  0.0001
     atom  10 (R=1.059)  charge=  1.4956  magn=  0.0136
     atom  11 (R=1.059)  charge=  1.5511  magn= -0.0034
     atom  12 (R=1.059)  charge=  1.5414  magn= -0.0007
     atom  13 (R=1.059)  charge=  1.5397  magn=  0.0014
     atom  14 (R=1.059)  charge=  1.5402  magn= -0.0007
     atom  15 (R=1.059)  charge=  1.5403  magn=  0.0020
     atom  16 (R=1.059)  charge=  1.5996  magn=  0.0027
     atom  17 (R=1.059)  charge=  1.5441  magn= -0.0015
     atom  18 (R=1.059)  charge=  1.4948  magn=  0.0011
     atom  19 (R=1.059)  charge=  1.5513  magn=  0.0000
     atom  20 (R=1.059)  charge=  1.5415  magn= -0.0003
     atom  21 (R=1.059)  charge=  1.5416  magn=  0.0124
     atom  22 (R=1.059)  charge=  1.5388  magn= -0.0036
     atom  23 (R=1.059)  charge=  1.5401  magn=  0.0116
     atom  24 (R=1.059)  charge=  1.5982  magn=  0.0015
     atom  25 (R=1.059)  charge=  1.5431  magn= -0.0007
     atom  26 (R=1.059)  charge=  1.4954  magn= -0.0010
     atom  27 (R=1.059)  charge=  1.5509  magn=  0.0053
     atom  28 (R=1.059)  charge=  1.5368  magn=  0.0021
     atom  29 (R=1.059)  charge=  1.5413  magn=  0.0096
     atom  30 (R=1.059)  charge=  1.5393  magn= -0.0018
     atom  31 (R=1.059)  charge=  1.5399  magn=  0.0020
     atom  32 (R=1.059)  charge=  1.5973  magn= -0.0058
     atom  33 (R=1.059)  charge=  1.5400  magn=  0.0053
     atom  34 (R=1.059)  charge=  1.4970  magn=  0.0061
     atom  35 (R=1.059)  charge=  1.5510  magn=  0.0014
     atom  36 (R=1.059)  charge=  1.5416  magn= -0.0006
     atom  37 (R=1.059)  charge=  1.5400  magn=  0.0010
     atom  38 (R=1.059)  charge=  1.5399  magn= -0.0006
     atom  39 (R=1.059)  charge=  1.5393  magn=  0.0013
     atom  40 (R=1.059)  charge=  1.4785  magn=  0.2460
     atom  41 (R=1.059)  charge=  1.5353  magn=  0.0004
     atom  42 (R=1.059)  charge=  1.4931  magn=  0.0136
     atom  43 (R=1.059)  charge=  1.5519  magn= -0.0004
     atom  44 (R=1.059)  charge=  1.5413  magn= -0.0003
     atom  45 (R=1.059)  charge=  1.5404  magn=  0.0012
     atom  46 (R=1.059)  charge=  1.5399  magn= -0.0011
     atom  47 (R=1.059)  charge=  1.5397  magn=  0.0015
     atom  48 (R=1.059)  charge=  1.6000  magn=  0.0026
     atom  49 (R=1.059)  charge=  1.5438  magn= -0.0012
     atom  50 (R=1.059)  charge=  1.4943  magn=  0.0009
     atom  51 (R=1.059)  charge=  1.5526  magn= -0.0015
     atom  52 (R=1.059)  charge=  1.5411  magn= -0.0014
     atom  53 (R=1.059)  charge=  1.5413  magn=  0.0022
     atom  54 (R=1.059)  charge=  1.5397  magn= -0.0018
     atom  55 (R=1.059)  charge=  1.5395  magn=  0.0023
     atom  56 (R=1.059)  charge=  1.5996  magn=  0.0012
     atom  57 (R=1.059)  charge=  1.5439  magn=  0.0002
     atom  58 (R=1.059)  charge=  1.4929  magn= -0.0005
     atom  59 (R=1.059)  charge=  1.5532  magn= -0.0014
     atom  60 (R=1.059)  charge=  1.5417  magn=  0.0006
     atom  61 (R=1.059)  charge=  1.5413  magn=  0.0025
     atom  62 (R=1.059)  charge=  1.5394  magn= -0.0014
     atom  63 (R=1.059)  charge=  1.5387  magn=  0.0021
     atom  64 (R=1.059)  charge=  1.5999  magn= -0.0002
     atom  65 (R=1.059)  charge=  1.5422  magn=  0.0015
     atom  66 (R=1.059)  charge=  1.4954  magn=  0.0025
     atom  67 (R=1.059)  charge=  1.5523  magn= -0.0005
     atom  68 (R=1.059)  charge=  1.5422  magn= -0.0002
     atom  69 (R=1.059)  charge=  1.5404  magn=  0.0010
     atom  70 (R=1.059)  charge=  1.5402  magn= -0.0004
     atom  71 (R=1.059)  charge=  1.5402  magn=  0.0012
     atom  72 (R=1.059)  charge=  1.6000  magn=  0.0157
     atom  73 (R=1.059)  charge=  1.5427  magn= -0.0051
     atom  74 (R=1.059)  charge=  1.4957  magn=  0.0031
     atom  75 (R=1.059)  charge=  1.5528  magn= -0.0030
     atom  76 (R=1.059)  charge=  1.5411  magn= -0.0004
     atom  77 (R=1.059)  charge=  1.5408  magn=  0.0009
     atom  78 (R=1.059)  charge=  1.5401  magn= -0.0008
     atom  79 (R=1.059)  charge=  1.5398  magn=  0.0012
     atom  80 (R=1.059)  charge=  1.5999  magn=  0.0022
     atom  81 (R=1.059)  charge=  1.5430  magn= -0.0004
     atom  82 (R=1.059)  charge=  1.4945  magn=  0.0015
     atom  83 (R=1.059)  charge=  1.5530  magn= -0.0016
     atom  84 (R=1.059)  charge=  1.5413  magn= -0.0009
     atom  85 (R=1.059)  charge=  1.5410  magn=  0.0012
     atom  86 (R=1.059)  charge=  1.5402  magn= -0.0007
     atom  87 (R=1.059)  charge=  1.5391  magn=  0.0013
     atom  88 (R=1.059)  charge=  1.5998  magn=  0.0006
     atom  89 (R=1.059)  charge=  1.5437  magn=  0.0002
     atom  90 (R=1.059)  charge=  1.4946  magn=  0.0011
     atom  91 (R=1.059)  charge=  1.5528  magn= -0.0009
     atom  92 (R=1.059)  charge=  1.5418  magn= -0.0003
     atom  93 (R=1.059)  charge=  1.5413  magn=  0.0011
     atom  94 (R=1.059)  charge=  1.5397  magn= -0.0007
     atom  95 (R=1.059)  charge=  1.5396  magn=  0.0013
     atom  96 (R=1.059)  charge=  1.6000  magn=  0.0003
     atom  97 (R=1.059)  charge=  1.5429  magn= -0.0009
     atom  98 (R=1.059)  charge=  1.4952  magn=  0.0010
     atom  99 (R=1.059)  charge=  1.5521  magn= -0.0005
     atom 100 (R=1.059)  charge=  1.5413  magn= -0.0006
     atom 101 (R=1.059)  charge=  1.5402  magn=  0.0016
     atom 102 (R=1.059)  charge=  1.5403  magn= -0.0003
     atom 103 (R=1.059)  charge=  1.5400  magn=  0.0008
     atom 104 (R=1.059)  charge=  1.6000  magn=  0.0022
     atom 105 (R=1.059)  charge=  1.5423  magn= -0.0023
     atom 106 (R=1.059)  charge=  1.4949  magn=  0.0012
     atom 107 (R=1.059)  charge=  1.5526  magn= -0.0021
     atom 108 (R=1.059)  charge=  1.5408  magn= -0.0007
     atom 109 (R=1.059)  charge=  1.5406  magn=  0.0013
     atom 110 (R=1.059)  charge=  1.5407  magn= -0.0005
     atom 111 (R=1.059)  charge=  1.5397  magn=  0.0008
     atom 112 (R=1.059)  charge=  1.5997  magn=  0.0014
     atom 113 (R=1.059)  charge=  1.5435  magn= -0.0011
     atom 114 (R=1.059)  charge=  1.4948  magn=  0.0005
     atom 115 (R=1.059)  charge=  1.5522  magn= -0.0009
     atom 116 (R=1.059)  charge=  1.5413  magn= -0.0010
     atom 117 (R=1.059)  charge=  1.5403  magn=  0.0012
     atom 118 (R=1.059)  charge=  1.5400  magn= -0.0004
     atom 119 (R=1.059)  charge=  1.5399  magn=  0.0011
     atom 120 (R=1.059)  charge=  1.5995  magn=  0.0007
     atom 121 (R=1.059)  charge=  1.5431  magn= -0.0004
     atom 122 (R=1.059)  charge=  1.4965  magn= -0.0004
     atom 123 (R=1.059)  charge=  1.5512  magn= -0.0005
     atom 124 (R=1.059)  charge=  1.5417  magn= -0.0009
     atom 125 (R=1.059)  charge=  1.5406  magn=  0.0014
     atom 126 (R=1.059)  charge=  1.5399  magn= -0.0003
     atom 127 (R=1.059)  charge=  1.5402  magn=  0.0010
     atom 128 (R=1.059)  charge=  1.5999  magn=  0.0016
     atom 129 (R=1.059)  charge=  1.5442  magn= -0.0010
     atom 130 (R=1.059)  charge=  1.4947  magn= -0.0002
     atom 131 (R=1.059)  charge=  1.5518  magn= -0.0006
     atom 132 (R=1.059)  charge=  1.5416  magn= -0.0005
     atom 133 (R=1.059)  charge=  1.5400  magn=  0.0014
     atom 134 (R=1.059)  charge=  1.5405  magn= -0.0004
     atom 135 (R=1.059)  charge=  1.5397  magn=  0.0010
     atom 136 (R=1.059)  charge=  1.5996  magn=  0.0017
     atom 137 (R=1.059)  charge=  1.5437  magn= -0.0012
     atom 138 (R=1.059)  charge=  1.4950  magn=  0.0002
     atom 139 (R=1.059)  charge=  1.5518  magn= -0.0017
     atom 140 (R=1.059)  charge=  1.5415  magn= -0.0005
     atom 141 (R=1.059)  charge=  1.5402  magn=  0.0012
     atom 142 (R=1.059)  charge=  1.5405  magn= -0.0006
     atom 143 (R=1.059)  charge=  1.5398  magn=  0.0011
     atom 144 (R=1.059)  charge=  1.5991  magn=  0.0017
     atom 145 (R=1.059)  charge=  1.5447  magn= -0.0015
     atom 146 (R=1.059)  charge=  1.4950  magn= -0.0002
     atom 147 (R=1.059)  charge=  1.5505  magn= -0.0008
     atom 148 (R=1.059)  charge=  1.5415  magn= -0.0011
     atom 149 (R=1.059)  charge=  1.5408  magn=  0.0012
     atom 150 (R=1.059)  charge=  1.5397  magn= -0.0012
     atom 151 (R=1.059)  charge=  1.5396  magn=  0.0018
     atom 152 (R=1.059)  charge=  1.5999  magn=  0.0015
     atom 153 (R=1.059)  charge=  1.5434  magn= -0.0007
     atom 154 (R=1.059)  charge=  1.4960  magn= -0.0015
     atom 155 (R=1.059)  charge=  1.5507  magn= -0.0005
     atom 156 (R=1.059)  charge=  1.5410  magn= -0.0009
     atom 157 (R=1.059)  charge=  1.5411  magn=  0.0013
     atom 158 (R=1.059)  charge=  1.5393  magn= -0.0008
     atom 159 (R=1.059)  charge=  1.5396  magn=  0.0018
     atom 160 (R=1.059)  charge=  1.5995  magn=  0.0012
     atom 161 (R=1.059)  charge=  1.5440  magn= -0.0006
     atom 162 (R=1.059)  charge=  1.4945  magn=  0.0015
     atom 163 (R=1.059)  charge=  1.5525  magn= -0.0011
     atom 164 (R=1.059)  charge=  1.5419  magn= -0.0001
     atom 165 (R=1.059)  charge=  1.5402  magn=  0.0008
     atom 166 (R=1.059)  charge=  1.5405  magn= -0.0005
     atom 167 (R=1.059)  charge=  1.5399  magn=  0.0012
     atom 168 (R=1.059)  charge=  1.5998  magn=  0.0014
     atom 169 (R=1.059)  charge=  1.5435  magn= -0.0009
     atom 170 (R=1.059)  charge=  1.4943  magn=  0.0017
     atom 171 (R=1.059)  charge=  1.5526  magn= -0.0024
     atom 172 (R=1.059)  charge=  1.5412  magn= -0.0003
     atom 173 (R=1.059)  charge=  1.5405  magn=  0.0010
     atom 174 (R=1.059)  charge=  1.5401  magn= -0.0009
     atom 175 (R=1.059)  charge=  1.5398  magn=  0.0015
     atom 176 (R=1.059)  charge=  1.5996  magn=  0.0016
     atom 177 (R=1.059)  charge=  1.5446  magn= -0.0012
     atom 178 (R=1.059)  charge=  1.4942  magn=  0.0008
     atom 179 (R=1.059)  charge=  1.5522  magn= -0.0012
     atom 180 (R=1.059)  charge=  1.5410  magn= -0.0011
     atom 181 (R=1.059)  charge=  1.5415  magn=  0.0017
     atom 182 (R=1.059)  charge=  1.5395  magn= -0.0033
     atom 183 (R=1.059)  charge=  1.5359  magn=  0.0070
     atom 184 (R=1.059)  charge=  1.6001  magn=  0.0012
     atom 185 (R=1.059)  charge=  1.5437  magn= -0.0002
     atom 186 (R=1.059)  charge=  1.4947  magn= -0.0000
     atom 187 (R=1.059)  charge=  1.5531  magn= -0.0008
     atom 188 (R=1.059)  charge=  1.5410  magn=  0.0001
     atom 189 (R=1.059)  charge=  1.5416  magn=  0.0020
     atom 190 (R=1.059)  charge=  1.5391  magn= -0.0018
     atom 191 (R=1.059)  charge=  1.5388  magn=  0.0019
     atom 192 (R=1.059)  charge=  1.5992  magn= -0.0001
     atom 193 (R=1.059)  charge=  1.5432  magn= -0.0003
     atom 194 (R=1.059)  charge=  1.4954  magn=  0.0023
     atom 195 (R=1.059)  charge=  1.5520  magn= -0.0012
     atom 196 (R=1.059)  charge=  1.5422  magn=  0.0003
     atom 197 (R=1.059)  charge=  1.5400  magn=  0.0014
     atom 198 (R=1.059)  charge=  1.5394  magn= -0.0006
     atom 199 (R=1.059)  charge=  1.5398  magn=  0.0011
     atom 200 (R=1.059)  charge=  1.6001  magn=  0.0018
     atom 201 (R=1.059)  charge=  1.5424  magn= -0.0020
     atom 202 (R=1.059)  charge=  1.4958  magn=  0.0029
     atom 203 (R=1.059)  charge=  1.5529  magn= -0.0028
     atom 204 (R=1.059)  charge=  1.5413  magn= -0.0005
     atom 205 (R=1.059)  charge=  1.5407  magn=  0.0011
     atom 206 (R=1.059)  charge=  1.5393  magn= -0.0011
     atom 207 (R=1.059)  charge=  1.5403  magn=  0.0021
     atom 208 (R=1.059)  charge=  1.6000  magn=  0.0012
     atom 209 (R=1.059)  charge=  1.5430  magn= -0.0008
     atom 210 (R=1.059)  charge=  1.4947  magn=  0.0015
     atom 211 (R=1.059)  charge=  1.5525  magn= -0.0014
     atom 212 (R=1.059)  charge=  1.5403  magn= -0.0009
     atom 213 (R=1.059)  charge=  1.5367  magn=  0.0065
     atom 214 (R=1.059)  charge=  1.5309  magn= -0.0038
     atom 215 (R=1.059)  charge=  1.3999  magn=  0.1224
     atom 216 (R=1.059)  charge=  1.5997  magn=  0.0003
     atom 217 (R=1.059)  charge=  1.5428  magn=  0.0000
     atom 218 (R=1.059)  charge=  1.4939  magn=  0.0013
     atom 219 (R=1.059)  charge=  1.5530  magn= -0.0008
     atom 220 (R=1.059)  charge=  1.5346  magn=  0.0016
     atom 221 (R=1.059)  charge=  1.5401  magn=  0.0067
     atom 222 (R=1.059)  charge=  1.5368  magn=  0.0029
     atom 223 (R=1.059)  charge=  1.5380  magn=  0.0050
     atom 224 (R=1.059)  charge=  1.6001  magn=  0.0003
     atom 225 (R=1.059)  charge=  1.5423  magn=  0.0010
     atom 226 (R=1.059)  charge=  1.4974  magn=  0.0053
     atom 227 (R=1.059)  charge=  1.5505  magn=  0.0012
     atom 228 (R=1.059)  charge=  1.5399  magn= -0.0016
     atom 229 (R=1.059)  charge=  1.5412  magn=  0.0014
     atom 230 (R=1.059)  charge=  1.5391  magn= -0.0005
     atom 231 (R=1.059)  charge=  1.5386  magn=  0.0013
     atom 232 (R=1.059)  charge=  1.6002  magn=  0.0159
     atom 233 (R=1.059)  charge=  1.5426  magn= -0.0052
     atom 234 (R=1.059)  charge=  1.4941  magn=  0.0129
     atom 235 (R=1.059)  charge=  1.5516  magn=  0.0006
     atom 236 (R=1.059)  charge=  1.5406  magn= -0.0007
     atom 237 (R=1.059)  charge=  1.5410  magn=  0.0015
     atom 238 (R=1.059)  charge=  1.5399  magn= -0.0009
     atom 239 (R=1.059)  charge=  1.5400  magn=  0.0024
     atom 240 (R=1.059)  charge=  1.5998  magn=  0.0023
     atom 241 (R=1.059)  charge=  1.5426  magn= -0.0005
     atom 242 (R=1.059)  charge=  1.4951  magn=  0.0005
     atom 243 (R=1.059)  charge=  1.5516  magn= -0.0010
     atom 244 (R=1.059)  charge=  1.5412  magn= -0.0025
     atom 245 (R=1.059)  charge=  1.5407  magn=  0.0095
     atom 246 (R=1.059)  charge=  1.5376  magn=  0.0025
     atom 247 (R=1.059)  charge=  1.4777  magn=  0.2138
     atom 248 (R=1.059)  charge=  1.5986  magn=  0.0005
     atom 249 (R=1.059)  charge=  1.5425  magn= -0.0002
     atom 250 (R=1.059)  charge=  1.4937  magn= -0.0007
     atom 251 (R=1.059)  charge=  1.5515  magn= -0.0007
     atom 252 (R=1.059)  charge=  1.4356  magn=  0.0887
     atom 253 (R=1.059)  charge=  1.5332  magn= -0.0018
     atom 254 (R=1.059)  charge=  1.5378  magn=  0.0041

     total cpu time spent up to now is      238.3 secs

     End of self-consistent calculation

 ------ SPIN UP ------------


          k = 0.0000 0.0000 0.0000 (218367 PWs)   bands (ev):

   -19.8025 -19.5615 -19.5457 -19.5195 -19.4840 -19.4200 -19.2952 -19.2754
   -19.2301 -19.2082 -19.2047 -19.1884 -19.1457 -19.0607 -18.9463 -18.9402
   -18.9209 -18.8312 -18.7551 -18.7095 -18.6712 -18.4903 -18.4862 -18.4607
   -18.4514 -18.4109 -18.4060 -18.3315 -18.1926 -18.1794 -18.1551 -18.1375
   -18.1315 -18.0416 -18.0234 -17.9268 -17.8911 -17.8906 -17.7166 -17.6759
   -17.6508 -17.6032 -17.4154 -17.3981 -17.3783 -17.2922 -17.1553 -17.1463
   -17.1221 -17.1061 -17.0999 -17.0873 -17.0807 -17.0316 -16.9536 -16.8532
   -16.8192 -16.8043 -16.7459 -16.6353 -16.6134 -16.5829 -16.4614 -16.4329
   -16.4080 -16.3618 -16.2748 -16.2519 -16.2175 -16.2045 -16.1291 -16.1084
   -16.0333 -16.0253 -15.9656 -15.8574 -15.8203 -15.7911 -15.7690 -15.7214
   -15.6623 -15.4939 -15.4699 -15.4439 -15.4362 -15.4223 -15.3860 -15.3748
   -15.3319 -15.3132 -15.3026 -15.2996 -15.2642 -15.2410 -15.2143 -15.1820
   -15.1284 -15.0574 -15.0132 -14.9896 -14.9463 -14.8394 -14.7659 -14.6487
   -14.4779 -14.4506 -14.4387 -14.4295 -14.3916 -14.2999 -14.2674 -14.2523
   -14.2286 -14.2120 -14.1731 -14.1419 -14.1203 -14.1077 -13.9146 -13.8070
   -13.7621 -13.5761 -13.5412 -13.5068 -13.4379 -13.4111 -13.3614 -13.3453
   -13.3130 -13.2720 -13.2384 -13.2253 -13.1419 -13.1144 -12.9808 -12.9736
   -12.8956 -12.8541 -12.8095 -12.7662 -12.6700 -12.6149 -12.6036 -12.5708
   -12.5573 -12.5525 -12.5227 -12.4846 -12.4742 -12.4188 -12.3917 -12.3832
   -12.3735 -12.3229 -12.3106 -12.2412 -12.2262 -12.1320 -12.1140 -12.0596
   -12.0387 -12.0156 -11.8012 -11.5980 -11.5916 -11.4915 -11.4702 -11.2497
   -11.2378 -11.2060 -11.1714 -11.0043 -10.8777 -10.8713 -10.8133 -10.8044
   -10.7544 -10.7501 -10.7465 -10.7421 -10.7406 -10.7300 -10.7180 -10.6909
   -10.6640 -10.6185 -10.5819 -10.5291 -10.4911 -10.4582 -10.4274 -10.4146
   -10.3967 -10.3804 -10.3680 -10.3433 -10.2973 -10.2790 -10.2652 -10.2509
   -10.2002 -10.1940 -10.1587 -10.0414 -10.0358 -10.0014  -9.9856  -9.9165
    -9.8693  -9.7806  -9.4781  -9.4777  -9.4366  -9.3206  -9.3134  -9.2736
    -9.2161  -9.2068  -9.1796  -9.1621  -9.1253  -9.1031  -9.0993  -9.0981
    -8.9988  -8.9486  -8.8883  -8.8307  -8.7905  -8.7722  -8.7556  -8.7506
    -8.7395  -8.7201  -8.5991  -8.5615  -8.5572  -8.5253  -8.5200  -8.4726
    -8.4462  -8.3886  -8.3602  -8.2715  -8.2426  -8.1935  -8.1837  -8.1697
    -8.1251  -8.0441  -7.9939  -7.9617  -7.9419  -7.9385  -7.9008  -7.8567
    -7.8440  -7.7695  -7.7624  -7.7552  -7.7470  -7.7307  -7.7265  -7.7063
    -7.7029  -7.6895  -7.6497  -7.6468  -7.6427  -7.6325  -7.6321  -7.6299
    -7.6214  -7.6144  -7.6097  -7.5889  -7.5882  -7.5198  -7.5126  -7.5009
    -7.4399  -7.4286  -7.3828  -7.3582  -7.3562  -7.3535  -7.3130  -7.2758
    -7.2595  -7.2121  -7.1725  -7.1359  -7.1248  -7.1188  -7.1048  -7.0349
    -7.0278  -7.0115  -6.9780  -6.9239  -6.9184  -6.8987  -6.8921  -6.8753
    -6.8459  -6.8376  -6.8351  -6.8227  -6.7848  -6.7772  -6.7607  -6.7515
    -6.7513  -6.7122  -6.7051  -6.7014  -6.6690  -6.6460  -6.6382  -6.6367
    -6.6251  -6.6030  -6.5826  -6.5725  -6.5608  -6.5437  -6.5340  -6.5317
    -6.5041  -6.5006  -6.4455  -6.4370  -6.4301  -6.4185  -6.3994  -6.3889
    -6.3839  -6.3576  -6.3338  -6.3039  -6.2659  -6.2443  -6.2030  -6.2014
    -6.1802  -6.1073  -6.0839  -6.0798  -6.0523  -5.9985  -5.9891  -5.9431
    -5.9350  -5.9290  -5.9176  -5.8984  -5.8819  -5.8496  -5.8359  -5.8145
    -5.7672  -5.7197  -5.7134  -5.6671  -5.6521  -5.6447  -5.6257  -5.5928
    -5.5821  -5.4843  -5.4823  -5.4502  -5.4410  -5.4386  -5.4258  -5.3961
    -5.3785  -5.3648  -5.3518  -5.3409  -5.3065  -5.3053  -5.2977  -5.2881
    -5.2806  -5.2284  -5.2151  -5.1998  -5.1773  -5.1501  -5.1266  -5.1100
    -5.1055  -5.0562  -5.0364  -4.9704  -4.9399  -4.9085  -4.8682  -4.8444
    -4.8177  -4.8066  -4.7623  -4.7553  -4.7365  -4.6600  -4.6503  -4.6191
    -4.6153  -4.5935  -4.5907  -4.5565  -4.5407  -4.5377  -4.4915  -4.4254
    -4.4181  -4.4139  -4.4011  -4.3211  -4.3175  -4.3097  -4.3051  -4.2215
    -4.2120  -4.1962  -4.1648  -4.1251  -4.1101  -4.0916  -4.0479  -4.0185
    -4.0135  -4.0080  -4.0057  -4.0020  -3.9879  -3.9775  -3.9259  -3.9065
    -3.8951  -3.8441  -3.8369  -3.7861  -3.7227  -3.7058  -3.6626  -3.6146
    -3.5993  -3.4223  -3.4159  -3.4142  -3.3879  -3.3826  -3.3728  -3.3583
    -3.3436  -3.3303  -3.2737  -3.2556  -3.2297  -3.1825  -3.1578  -3.1134
    -3.0581  -3.0484  -3.0373  -2.9603  -2.8961  -2.8589  -2.8348  -2.7930
    -2.7360  -2.7077  -2.6306  -2.5740  -2.4904  -2.4758  -2.4626  -2.4578
    -2.4229  -2.3833  -2.3711  -2.3576  -2.3434  -2.2894  -2.2097  -2.1953
    -2.1810  -2.1700  -2.1187  -2.0986  -2.0712  -2.0187  -1.8601  -1.8021
    -1.7338  -1.6353  -1.5940  -1.5843  -1.3259  -1.1664  -1.0470  -1.0201
    -0.9018  -0.8119  -0.5839  -0.2791  -0.2265  -0.1567  -0.1269   0.0062
     0.1472   0.3239   0.5830   0.6377   0.8057   0.8961   0.9020   1.0856
     1.0896   1.1233   1.1771   1.3310   1.3552   1.4021   1.4045   1.4292
     1.4522   1.4881   1.5127   1.5302   1.5427   1.6037   1.7039   1.7648
     1.7803   1.8251   1.8682   1.9737   2.1489   2.1813   2.2208   2.2430
     2.2991   2.3044   2.3176   2.3543   2.4199   2.4661   2.5099   2.5129
     2.5663   2.5859   2.6067   2.7354   2.7781   2.8230   2.9447   2.9459
     2.9626   3.0202   3.1644   3.1859   3.2263   3.2775   3.2954   3.3257
     3.3412   3.4232   3.4449   3.5254   3.5538   3.5745   3.6467   3.6741
     3.7115   3.8229   3.9443   3.9485   3.9655   3.9708   3.9984   4.0003
     4.0190   4.0254   4.0488   4.0575   4.0729   4.0955   4.1214   4.1421
     4.1943   4.2773   4.3494   4.3976   4.5233   4.5265   4.5339   4.5367
     4.5592   4.5839   4.5967   4.6091   4.6921   4.6968   4.7316   4.7321
     4.8259   4.8715   4.8753   5.0773   5.1401   5.1422

     occupation numbers 
     1.0000   1.0000   1.0000   1.0000   1.0000   1.0000   1.0000   1.0000
     1.0000   1.0000   1.0000   1.0000   1.0000   1.0000   1.0000   1.0000
     1.0000   1.0000   1.0000   1.0000   1.0000   1.0000   1.0000   1.0000
     1.0000   1.0000   1.0000   1.0000   1.0000   1.0000   1.0000   1.0000
     1.0000   1.0000   1.0000   1.0000   1.0000   1.0000   1.0000   1.0000
     1.0000   1.0000   1.0000   1.0000   1.0000   1.0000   1.0000   1.0000
     1.0000   1.0000   1.0000   1.0000   1.0000   1.0000   1.0000   1.0000
     1.0000   1.0000   1.0000   1.0000   1.0000   1.0000   1.0000   1.0000
     1.0000   1.0000   1.0000   1.0000   1.0000   1.0000   1.0000   1.0000
     1.0000   1.0000   1.0000   1.0000   1.0000   1.0000   1.0000   1.0000
     1.0000   1.0000   1.0000   1.0000   1.0000   1.0000   1.0000   1.0000
     1.0000   1.0000   1.0000   1.0000   1.0000   1.0000   1.0000   1.0000
     1.0000   1.0000   1.0000   1.0000   1.0000   1.0000   1.0000   1.0000
     1.0000   1.0000   1.0000   1.0000   1.0000   1.0000   1.0000   1.0000
     1.0000   1.0000   1.0000   1.0000   1.0000   1.0000   1.0000   1.0000
     1.0000   1.0000   1.0000   1.0000   1.0000   1.0000   1.0000   1.0000
     1.0000   1.0000   1.0000   1.0000   1.0000   1.0000   1.0000   1.0000
     1.0000   1.0000   1.0000   1.0000   1.0000   1.0000   1.0000   1.0000
     1.0000   1.0000   1.0000   1.0000   1.0000   1.0000   1.0000   1.0000
     1.0000   1.0000   1.0000   1.0000   1.0000   1.0000   1.0000   1.0000
[...]
     atom   36 type  1   force =     0.00502832   -0.00085346   -0.02124025
     atom   37 type  1   force =     0.00467756    0.00265465   -0.02116568
     atom   38 type  1   force =     0.00360058    0.00193656   -0.01830086
     atom   39 type  1   force =     0.00344463   -0.00098714   -0.01821068
     atom   40 type  1   force =     0.01339552    0.00768879    0.01543989
     atom   41 type  1   force =     0.00642306    0.01049211    0.01562404
     atom   42 type  1   force =     0.00865347    0.00627848    0.01508940
     atom   43 type  1   force =     0.00269497   -0.00489672    0.01522921
     atom   44 type  1   force =     0.00302252   -0.00093678   -0.01934027
     atom   45 type  1   force =     0.00308262    0.00027517   -0.01785000
     atom   46 type  1   force =     0.00256076   -0.00004725   -0.01678156
     atom   47 type  1   force =     0.00329144   -0.00249602   -0.01721661
     atom   48 type  1   force =     0.00012808   -0.00058402    0.01616131
     atom   49 type  1   force =     0.00179506    0.00656798    0.01764963
     atom   50 type  1   force =     0.00266905    0.00008650    0.01688879
     atom   51 type  1   force =     0.00280660   -0.00926970    0.01773770
     atom   52 type  1   force =     0.00576498   -0.00437832   -0.01707736
     atom   53 type  1   force =     0.00648957   -0.00204127   -0.01642946
     atom   54 type  1   force =     0.00649947    0.00021249   -0.01648779
     atom   55 type  1   force =     0.00727363   -0.00334627   -0.01729913
     atom   56 type  1   force =     0.00231891   -0.00452110    0.02060453
     atom   57 type  1   force =     0.00566573    0.00514798    0.01898076
     atom   58 type  1   force =     0.00469723   -0.00139090    0.01629809
     atom   59 type  1   force =     0.00859835   -0.01309667    0.01464635
     atom   60 type  1   force =     0.01199792    0.00128709   -0.01757309
     atom   61 type  1   force =     0.00718372    0.00709595   -0.01788244
     atom   62 type  1   force =     0.00404142    0.00598547   -0.01762027
     atom   63 type  1   force =     0.00302535   -0.00180061   -0.01881315
     atom   64 type  1   force =     0.00952504   -0.00206775    0.01404985
     atom   65 type  1   force =     0.01261440    0.00699852    0.01397366
     atom   66 type  1   force =     0.00658455    0.00268749    0.01396844
     atom   67 type  1   force =     0.00759033   -0.00624546    0.01395250
     atom   68 type  1   force =     0.00135790   -0.00043084   -0.01754794
     atom   69 type  1   force =     0.00226490    0.00305309   -0.01685401
     atom   70 type  1   force =     0.00254260   -0.00041497   -0.01587555
     atom   71 type  1   force =     0.00237678   -0.00028251   -0.01608795
     atom   72 type  1   force =     0.01023821    0.00161568    0.01433026
     atom   73 type  1   force =     0.00528061    0.00962784    0.01450378
     atom   74 type  1   force =     0.00520262    0.00095728    0.01452049
     atom   75 type  1   force =     0.00374959   -0.00603958    0.01458349
     atom   76 type  1   force =     0.00103911   -0.00089070   -0.01663906
     atom   77 type  1   force =     0.00214763    0.00004778   -0.01625148
     atom   78 type  1   force =     0.00196310    0.00007553   -0.01598998
     atom   79 type  1   force =     0.00216806   -0.00131656   -0.01694518
     atom   80 type  1   force =     0.00315786   -0.00177140    0.01490449
     atom   81 type  1   force =     0.00270337    0.00815257    0.01539277
     atom   82 type  1   force =     0.00288532    0.00098193    0.01512976
     atom   83 type  1   force =     0.00447759   -0.00813421    0.01526259
     atom   84 type  1   force =     0.00285971   -0.00204801   -0.01698161
     atom   85 type  1   force =     0.00355625    0.00011788   -0.01654652
     atom   86 type  1   force =     0.00444097    0.00161236   -0.01656050
     atom   87 type  1   force =     0.00409690   -0.00235962   -0.01711490
     atom   88 type  1   force =     0.00366354   -0.00383270    0.01617378
     atom   89 type  1   force =     0.00302053    0.00800665    0.01584477
     atom   90 type  1   force =     0.00517012    0.00150647    0.01509164
     atom   91 type  1   force =     0.00607092   -0.00645385    0.01436162
     atom   92 type  1   force =     0.00553854   -0.00236620   -0.01724642
     atom   93 type  1   force =     0.00408552    0.00377225   -0.01695028
     atom   94 type  1   force =     0.00398650    0.00226618   -0.01670862
     atom   95 type  1   force =     0.00393354   -0.00176953   -0.01705628
     atom   96 type  1   force =     0.00543577   -0.00113566    0.01424432
     atom   97 type  1   force =     0.00379675    0.00790990    0.01407364
     atom   98 type  1   force =     0.00193389    0.00251784    0.01403128
     atom   99 type  1   force =     0.00292687   -0.00525022    0.01403015
     atom  100 type  1   force =     0.00177247    0.00082510   -0.01649423
     atom  101 type  1   force =     0.00175345    0.00067937   -0.01575518
     atom  102 type  1   force =     0.00088236   -0.00062056   -0.01554696
     atom  103 type  1   force =    -0.00006394   -0.00064883   -0.01583098
     atom  104 type  1   force =     0.00348807   -0.00008275    0.01410527
     atom  105 type  1   force =     0.00504373    0.00634551    0.01432335
     atom  106 type  1   force =     0.00120112   -0.00074514    0.01446639
     atom  107 type  1   force =     0.00331336   -0.00717064    0.01439699
     atom  108 type  1   force =     0.00181423   -0.00042422   -0.01564523
     atom  109 type  1   force =     0.00085767   -0.00077765   -0.01556420
     atom  110 type  1   force =     0.00181736    0.00089219   -0.01590479
     atom  111 type  1   force =     0.00169357    0.00017104   -0.01681217
     atom  112 type  1   force =     0.00183571   -0.00246179    0.01453708
     atom  113 type  1   force =     0.00210956    0.00770168    0.01464256
     atom  114 type  1   force =     0.00186448    0.00220037    0.01429550
     atom  115 type  1   force =     0.00292770   -0.00662401    0.01423435
     atom  116 type  1   force =     0.00280723    0.00008790   -0.01689949
     atom  117 type  1   force =     0.00336508    0.00128790   -0.01649744
     atom  118 type  1   force =     0.00257535    0.00153754   -0.01633591
     atom  119 type  1   force =     0.00435885   -0.00222313   -0.01679901
     atom  120 type  1   force =     0.00358995   -0.00233793    0.01475881
     atom  121 type  1   force =     0.00152295    0.00601872    0.01481954
     atom  122 type  1   force =     0.00339398    0.00231442    0.01447076
     atom  123 type  1   force =     0.00334590   -0.00374110    0.01411212
     atom  124 type  1   force =     0.00267092   -0.00170944   -0.01693241
     atom  125 type  1   force =     0.00286215    0.00224739   -0.01657590
     atom  126 type  1   force =     0.00228711    0.00070298   -0.01627609
     atom  127 type  1   force =     0.00159830   -0.00189193   -0.01656974
     atom  128 type  1   force =     0.00306589   -0.00295197    0.01390649
     atom  129 type  1   force =     0.00268031    0.00714937    0.01396413
     atom  130 type  1   force =     0.00115347    0.00216213    0.01397565
     atom  131 type  1   force =     0.00017544   -0.00611282    0.01419358
     atom  132 type  1   force =     0.00268344   -0.00100914   -0.01602436
     atom  133 type  1   force =     0.00058743    0.00052236   -0.01544379
     atom  134 type  1   force =    -0.00054095   -0.00052386   -0.01535616
     atom  135 type  1   force =     0.00008991   -0.00050184   -0.01577504
     atom  136 type  1   force =     0.00154939   -0.00123265    0.01425915
     atom  137 type  1   force =     0.00137087    0.00633558    0.01445742
     atom  138 type  1   force =     0.00138325    0.00066829    0.01444339
     atom  139 type  1   force =     0.00075233   -0.00645797    0.01404757
     atom  140 type  1   force =     0.00090843   -0.00015150   -0.01561352
     atom  141 type  1   force =     0.00114716    0.00070993   -0.01548816
     atom  142 type  1   force =     0.00100474    0.00163919   -0.01564278
     atom  143 type  1   force =     0.00295194    0.00166631   -0.01652308
     atom  144 type  1   force =     0.00264239   -0.00309125    0.01421826
     atom  145 type  1   force =     0.00228433    0.00684073    0.01399967
     atom  146 type  1   force =     0.00297273    0.00499952    0.01337864
     atom  147 type  1   force =     0.00288838   -0.00603667    0.01291879
     atom  148 type  1   force =     0.00219471    0.00022034   -0.01661050
     atom  149 type  1   force =     0.00353394    0.00328947   -0.01605619
     atom  150 type  1   force =     0.00464871    0.00417489   -0.01561386
     atom  151 type  1   force =     0.00614721   -0.00189801   -0.01608642
     atom  152 type  1   force =     0.00553481   -0.00275803    0.01379506
     atom  153 type  1   force =     0.00453099    0.00541426    0.01400098
     atom  154 type  1   force =     0.00271474    0.00207488    0.01340350
     atom  155 type  1   force =     0.00216750   -0.00535598    0.01336637
     atom  156 type  1   force =     0.00455591   -0.00243572   -0.01629488
     atom  157 type  1   force =     0.00437819    0.00062917   -0.01590416
     atom  158 type  1   force =     0.00369034    0.00032778   -0.01563923
     atom  159 type  1   force =     0.00168154   -0.00513356   -0.01610210
     atom  160 type  1   force =    -0.00231584   -0.00321048    0.01287567
     atom  161 type  1   force =     0.00004937    0.00704692    0.01356371
     atom  162 type  1   force =    -0.00119772    0.00156490    0.01394482
     atom  163 type  1   force =    -0.00152782   -0.00683604    0.01433861
     atom  164 type  1   force =     0.00029170   -0.00476095   -0.01594267
     atom  165 type  1   force =    -0.00131597   -0.00051995   -0.01535233
     atom  166 type  1   force =    -0.00181544   -0.00080844   -0.01543535
     atom  167 type  1   force =    -0.00170038    0.00043164   -0.01593038
     atom  168 type  1   force =    -0.00068555   -0.00081763    0.01434550
     atom  169 type  1   force =     0.00097216    0.00803972    0.01432051
     atom  170 type  1   force =    -0.00039720    0.00111342    0.01411909
     atom  171 type  1   force =    -0.00026209   -0.00645724    0.01325584
     atom  172 type  1   force =    -0.00119525    0.00060095   -0.01561925
     atom  173 type  1   force =    -0.00007550    0.00172169   -0.01530580
     atom  174 type  1   force =    -0.00073042    0.00332250   -0.01555324
     atom  175 type  1   force =     0.00125613    0.00603596   -0.01623321
     atom  176 type  1   force =     0.00122230   -0.00210978    0.01341411
     atom  177 type  1   force =     0.00352289    0.00943267    0.01269691
     atom  178 type  1   force =     0.00392461    0.00462054    0.01097772
     atom  179 type  1   force =     0.00424802   -0.00681073    0.00973308
     atom  180 type  1   force =     0.00305274    0.00266016   -0.01619012
     atom  181 type  1   force =     0.00726142    0.00606833   -0.01540636
     atom  182 type  1   force =     0.01650616    0.01199636   -0.01513012
     atom  183 type  1   force =     0.02194226   -0.00251172   -0.01562179
     atom  184 type  1   force =     0.00157172   -0.00318039    0.01166376
     atom  185 type  1   force =     0.00414557    0.00638229    0.01199641
     atom  186 type  1   force =     0.00278569   -0.00170411    0.01087499
     atom  187 type  1   force =     0.00070109   -0.00881118    0.01197362
     atom  188 type  1   force =     0.01100627   -0.00489026   -0.01566091
     atom  189 type  1   force =     0.00535356   -0.00277919   -0.01530282
     atom  190 type  1   force =     0.00175036   -0.00678893   -0.01526148
     atom  191 type  1   force =    -0.00314719   -0.00815945   -0.01601345
     atom  192 type  1   force =    -0.00174700   -0.00446106    0.01221820
     atom  193 type  1   force =    -0.00363171    0.00594702    0.01351303
     atom  194 type  1   force =    -0.00623358    0.00172558    0.01401380
     atom  195 type  1   force =    -0.00706382   -0.00654086    0.01430721
     atom  196 type  1   force =    -0.00722723   -0.00297466   -0.01668992
     atom  197 type  1   force =    -0.00199051    0.00186644   -0.01625058
     atom  198 type  1   force =    -0.00561198    0.00187824   -0.01784294
     atom  199 type  1   force =    -0.00283077   -0.00060324   -0.01790792
     atom  200 type  1   force =    -0.00220693   -0.00050604    0.01438135
     atom  201 type  1   force =    -0.00535033    0.00812490    0.01425153
     atom  202 type  1   force =    -0.00475085    0.00280178    0.01414707
     atom  203 type  1   force =    -0.00283577   -0.00215841    0.01279804
     atom  204 type  1   force =    -0.00177112    0.00078067   -0.01640829
     atom  205 type  1   force =    -0.00124524    0.00354841   -0.01593428
     atom  206 type  1   force =    -0.00454734    0.00361552   -0.01641034
     atom  207 type  1   force =    -0.00792424    0.00468830   -0.01649011
     atom  208 type  1   force =    -0.00063995    0.00140845    0.01228797
     atom  209 type  1   force =     0.00006089    0.01244689    0.01013884
     atom  210 type  1   force =    -0.00157767    0.00614054    0.00725911
     atom  211 type  1   force =    -0.00065815   -0.00520818    0.00305729
     atom  212 type  1   force =    -0.00116434    0.01204205   -0.01604515
     atom  213 type  1   force =     0.00658654    0.02254712   -0.01543068
     atom  214 type  1   force =    -0.02258455    0.05327850   -0.01580013
     atom  215 type  1   force =    -0.01044212    0.00337155   -0.01533774
     atom  216 type  1   force =     0.00245417   -0.00206060    0.00645171
     atom  217 type  1   force =     0.00151626    0.00448009    0.00792112
     atom  218 type  1   force =    -0.00500398   -0.00467567    0.00823988
     atom  219 type  1   force =    -0.00641855   -0.01152302    0.01182767
     atom  220 type  1   force =     0.03681476   -0.03239181   -0.01583024
     atom  221 type  1   force =    -0.00535387   -0.02422018   -0.01561326
     atom  222 type  1   force =    -0.01859470   -0.01243058   -0.01715464
     atom  223 type  1   force =    -0.00466494    0.00239696   -0.01800938
     atom  224 type  1   force =    -0.00870552   -0.00621080    0.01335097
     atom  225 type  1   force =    -0.01301038    0.00442849    0.01402059
     atom  226 type  1   force =    -0.01852030    0.00163807    0.01473026
     atom  227 type  1   force =    -0.00705196    0.00154998    0.01502002
     atom  228 type  1   force =    -0.00430135   -0.00054843   -0.02049209
     atom  229 type  1   force =    -0.00474510    0.00091397   -0.02053038
     atom  230 type  1   force =    -0.00216554    0.00315526   -0.02377617
     atom  231 type  1   force =    -0.00486634   -0.00008040   -0.02237563
     atom  232 type  1   force =    -0.01045095    0.00148052    0.01460512
     atom  233 type  1   force =    -0.00626172    0.00984753    0.01459501
     atom  234 type  1   force =    -0.01033379    0.00710086    0.01496941
     atom  235 type  1   force =    -0.00474121   -0.00121300    0.01433665
     atom  236 type  1   force =    -0.00319869   -0.00019766   -0.01898053
     atom  237 type  1   force =    -0.00461735    0.00189037   -0.01758015
     atom  238 type  1   force =    -0.00222518    0.00003510   -0.01791034
     atom  239 type  1   force =    -0.00643493   -0.00582595   -0.01718753
     atom  240 type  1   force =    -0.00493601    0.00304361    0.01272914
     atom  241 type  1   force =    -0.00603501    0.01220747    0.01037667
     atom  242 type  1   force =    -0.01071004    0.00232134    0.01359976
     atom  243 type  1   force =    -0.01362592   -0.00721654    0.01334489
     atom  244 type  1   force =    -0.01342138    0.00110868   -0.01648761
     atom  245 type  1   force =    -0.03930413    0.00264540   -0.01620612
     atom  246 type  1   force =    -0.02750803   -0.04487800   -0.01710434
     atom  247 type  1   force =    -0.01195911   -0.01124295   -0.01891015
     atom  248 type  1   force =    -0.01034163   -0.00384380    0.00341750
     atom  249 type  1   force =    -0.01101269    0.00044413    0.00743976
     atom  250 type  1   force =    -0.01168264   -0.00289865    0.01429193
     atom  251 type  1   force =    -0.01193478   -0.01287053    0.01403039
     atom  252 type  1   force =    -0.02494191   -0.00084202   -0.01875116
     atom  253 type  1   force =    -0.00604512    0.01316762   -0.01992490
     atom  254 type  1   force =    -0.00372541    0.00499896   -0.02233517

     Total force =     2.050610     Total SCF correction =     0.307707
     SCF correction compared to forces is large: reduce conv_thr to get better values

     Writing all to output data dir ./calc.save/

     init_run     :      7.21s CPU      7.38s WALL (       1 calls)
     electrons    :    229.11s CPU    231.16s WALL (       1 calls)
     forces       :      1.85s CPU      2.11s WALL (       1 calls)

     Called by init_run:
     wfcinit      :      3.88s CPU      3.97s WALL (       1 calls)
     wfcinit:wfcr :      3.81s CPU      3.90s WALL (       2 calls)
     potinit      :      1.11s CPU      1.12s WALL (       1 calls)
     hinit0       :      1.56s CPU      1.61s WALL (       1 calls)

     Called by electrons:
     c_bands      :    207.30s CPU    208.92s WALL (      12 calls)
     sum_band     :     16.40s CPU     16.51s WALL (      12 calls)
     v_of_rho     :      6.12s CPU      6.18s WALL (      13 calls)
     v_h          :      0.04s CPU      0.04s WALL (      13 calls)
     v_xc         :      6.47s CPU      6.54s WALL (      14 calls)
     mix_rho      :      0.12s CPU      0.13s WALL (      12 calls)
     vdW_kernel   :      0.49s CPU      0.49s WALL (       1 calls)

     Called by c_bands:
     init_us_2    :      0.25s CPU      0.25s WALL (      52 calls)
     init_us_2:cp :      0.25s CPU      0.25s WALL (      52 calls)
     regterg      :    206.47s CPU    208.08s WALL (      27 calls)

     Called by sum_band:
     sum_band:wei :      0.01s CPU      0.01s WALL (      12 calls)
     sum_band:loo :     16.25s CPU     16.36s WALL (      12 calls)
     sum_band:buf :      0.04s CPU      0.04s WALL (      24 calls)
     sum_band:ini :      0.12s CPU      0.12s WALL (      24 calls)

     Called by *egterg:
     rdiaghg      :     63.83s CPU     64.15s WALL (     324 calls)
     regterg:over :     10.27s CPU     10.40s WALL (     297 calls)
     regterg:upda :      7.70s CPU      7.76s WALL (     297 calls)
     regterg:last :      9.83s CPU      9.89s WALL (      70 calls)
     rdiaghg:chol :      1.19s CPU      1.20s WALL (     324 calls)
     rdiaghg:inve :      0.08s CPU      0.08s WALL (     324 calls)
     rdiaghg:para :      2.70s CPU      2.74s WALL (     648 calls)
     h_psi        :    115.26s CPU    116.38s WALL (     326 calls)
     g_psi        :      0.10s CPU      0.10s WALL (     297 calls)

     Called by h_psi:
     h_psi:calbec :      8.48s CPU      8.68s WALL (     326 calls)
     vloc_psi     :    100.07s CPU    100.97s WALL (     326 calls)
     add_vuspsi   :      6.59s CPU      6.62s WALL (     326 calls)

     General routines
     calbec       :      9.14s CPU      9.36s WALL (     334 calls)
     fft          :      4.61s CPU      4.68s WALL (    1101 calls)
     ffts         :      0.07s CPU      0.07s WALL (      24 calls)
     fftw         :    111.79s CPU    112.76s WALL (   56852 calls)

     Parallel routines
     fft_scatt_xy :      4.63s CPU      4.67s WALL (   57977 calls)
     fft_scatt_yz :     87.64s CPU     88.46s WALL (   57977 calls)

     PWSCF        :   4m 7.88s CPU   4m23.98s WALL


   This run was terminated on:  16:44:17   6Apr2023            

=------------------------------------------------------------------------------=
   JOB DONE.
=------------------------------------------------------------------------------=
