:MDSTEP: 20
:R(Bohr):
  5.3411989107E+01   1.4898231610E-02   4.6420120349E+01
  3.9982641699E+00   5.3077608153E+01   5.0248631647E+01
  5.3478413619E+01   3.1875415936E+00   4.9678875265E+01
  5.3135884162E+01   3.9672049134E-01   3.8235544721E+01
  3.6659708251E+00   5.3479894134E+01   4.1598580662E+01
  7.1065938793E+00   3.5792388681E-01   4.5645441909E+01
  1.0689541357E+01   5.3347170599E+01   4.9984148441E+01
  5.3452339073E+01   4.0136480115E+00   4.2668762780E+01
  3.7695164179E+00   3.5067587733E+00   4.6123138518E+01
  7.3191023440E+00   3.7649107456E+00   4.9156653784E+01
  5.3486804885E+01   7.4327122749E+00   4.6116786118E+01
  3.9665888331E+00   7.6417131553E+00   5.0267160340E+01
  5.3512111141E+01   1.1714345748E+01   4.9534030748E+01
  6.5824795329E-01   5.3438867284E+01   3.0228364060E+01
  3.0206316741E+00   3.5221089054E-01   3.4087279177E+01
  7.7786079878E+00   5.2960265251E+01   3.8405939390E+01
  1.1192918902E+01   5.3427048767E+01   4.2400951369E+01
  1.5089390231E+01   3.0704846731E-01   4.5726865767E+01
  1.8954211903E+01   5.3381292698E+01   4.9682844658E+01
  5.3516855798E+01   3.9493889383E+00   3.4112093269E+01
  3.9816601421E+00   3.5834857304E+00   3.8113595408E+01
  8.2785450027E+00   3.6423069491E+00   4.2219843581E+01
  1.1393655160E+01   3.7164391918E+00   4.5932951274E+01
  1.5394512636E+01   4.3348478326E+00   4.9654808693E+01
  1.2434128099E-01   8.2695193066E+00   3.8281661715E+01
  4.1420893119E+00   7.4019974161E+00   4.1447564200E+01
  7.1196744271E+00   7.8937608823E+00   4.5728171414E+01
  1.1176413524E+01   7.6404881956E+00   4.9829111132E+01
  5.3067782239E+01   1.1350075419E+01   4.2544776143E+01
  4.1203098945E+00   1.1841382411E+01   4.6019003521E+01
  7.4422405951E+00   1.1932686118E+01   4.9721614872E+01
  5.3251997748E+01   1.5337676362E+01   4.5474247439E+01
  4.1572994661E+00   1.5510845024E+01   4.9325009381E+01
  5.3259533018E+01   1.9204710401E+01   4.9396269308E+01
  5.3387319089E+01   4.1198503585E-01   2.2730309706E+01
  3.7941236697E+00   5.3266799168E+01   2.6443303670E+01
  7.8448219759E+00   5.3335610001E+01   3.0697771562E+01
  1.1956899170E+01   5.3548779590E+01   3.4087155517E+01
  1.4628030842E+01   9.7982082324E-02   3.7842996782E+01
  1.9117349619E+01   5.3323399014E+01   4.2168991850E+01
  2.3334056217E+01   1.8687277375E-01   4.6331863506E+01
  2.7035977401E+01   2.6235746605E-01   4.9925629790E+01
  5.3424366512E+01   3.3067522623E+00   2.6723061366E+01
  4.2462788244E+00   4.2663385971E+00   3.0414310875E+01
  7.5043144249E+00   3.9518910047E+00   3.4507475297E+01
  1.1250916918E+01   4.0992107609E+00   3.8434700504E+01
  1.5651420678E+01   3.4498648188E+00   4.1774662882E+01
  1.9038458826E+01   3.5881428674E+00   4.6360867472E+01
  2.3230093749E+01   3.5749042728E+00   4.9627016317E+01
  5.3261045002E+01   7.4627431760E+00   3.0309495655E+01
  3.5294656383E+00   7.3917061514E+00   3.4529334295E+01
  7.7560044665E+00   7.3684694225E+00   3.8381142260E+01
  1.1560391516E+01   7.7856066889E+00   4.1675360782E+01
  1.4961226683E+01   7.8726395109E+00   4.5811691798E+01
  1.9087783037E+01   7.5547632885E+00   5.0149842207E+01
  5.3293604969E+01   1.1056220271E+01   3.4117570639E+01
  4.0518122409E+00   1.1629705289E+01   3.8069924885E+01
  7.0472635043E+00   1.1551706182E+01   4.2056177707E+01
  1.1491108827E+01   1.0954419635E+01   4.6126679335E+01
  1.5855432085E+01   1.1661156854E+01   4.9328393853E+01
  5.3123478970E+01   1.5892714493E+01   3.8317309293E+01
  3.7206186322E+00   1.5554435312E+01   4.2421416615E+01
  7.7619112213E+00   1.5699830044E+01   4.5382737961E+01
  1.1494378316E+01   1.4802010389E+01   4.9134749661E+01
  5.3368190334E+01   1.9159347449E+01   4.2253567856E+01
  4.1438338397E+00   1.9142932618E+01   4.5646158772E+01
  7.9056785844E+00   1.8777043381E+01   4.9606132536E+01
  2.5371983913E-01   2.3012097651E+01   4.6119920887E+01
  4.2181787155E+00   2.2836029933E+01   4.9707887911E+01
  5.3366788196E+01   2.7216681839E+01   4.9615545297E+01
  5.3475149076E+01   1.0778193006E-01   1.5080047008E+01
  3.4169195440E+00   5.3515248588E+01   1.8910319353E+01
  7.5642797923E+00   5.3156193981E+01   2.2436570854E+01
  1.1444473950E+01   3.4087705679E-01   2.6973353558E+01
  1.5619589395E+01   5.3337444546E+01   3.0586542102E+01
  1.8611545074E+01   5.3276474118E+01   3.4638701341E+01
  2.3131563304E+01   5.3400877012E+01   3.8639561879E+01
  2.6755604621E+01   5.3286354413E+01   4.2334605491E+01
  3.1042051514E+01   5.3338593288E+01   4.5757039246E+01
  3.4402176606E+01   5.3082078311E+01   4.9506256061E+01
  3.1210805536E-01   3.8994638357E+00   1.8595358066E+01
  3.7423793796E+00   3.6590333852E+00   2.3511009410E+01
  8.1917323468E+00   3.8595352639E+00   2.6981520849E+01
  1.1489405755E+01   3.7473426783E+00   3.0843176180E+01
  1.5094749471E+01   4.0412394033E+00   3.4227367851E+01
  1.8871027753E+01   3.4591628087E+00   3.7883759641E+01
  2.2981724970E+01   3.6788394199E+00   4.1941461317E+01
  2.7340319304E+01   3.3833727182E+00   4.5602121278E+01
  3.0808427757E+01   3.8737694868E+00   4.9559395588E+01
  8.1496707889E-02   8.0776960654E+00   2.2406203241E+01
  3.5270822663E+00   8.1505659906E+00   2.6325098275E+01
  7.9587668060E+00   7.4123196373E+00   3.0582640172E+01
  1.1386806214E+01   7.5833232915E+00   3.4234035132E+01
  1.5557264095E+01   7.0837791433E+00   3.8313530817E+01
  1.9184837458E+01   6.9233473916E+00   4.2524514561E+01
  2.2778489484E+01   7.2632095004E+00   4.5808066347E+01
  2.7002055050E+01   7.4579878336E+00   5.0004612486E+01
  3.6347806549E-02   1.1314517482E+01   2.7009439822E+01
  3.7580893496E+00   1.1380600073E+01   3.0903225599E+01
  7.5243533878E+00   1.1226407898E+01   3.4279761005E+01
  1.1430765877E+01   1.1345469088E+01   3.8739763406E+01
  1.5564925822E+01   1.1164517445E+01   4.2423053279E+01
  1.9723804261E+01   1.1494861265E+01   4.5684441753E+01
  2.2436685214E+01   1.1225292640E+01   5.0130247540E+01
  1.8675420173E-01   1.5677113870E+01   3.0011202121E+01
  3.8885551833E+00   1.5580378246E+01   3.3864301477E+01
  7.2470090308E+00   1.5675921125E+01   3.8227215407E+01
  1.2026811259E+01   1.5415535826E+01   4.2714580278E+01
  1.5523772343E+01   1.5388765566E+01   4.5918988306E+01
  1.9586043234E+01   1.5302031381E+01   4.9420044524E+01
  5.3143463069E+01   1.9413821234E+01   3.4489797606E+01
  3.2641065829E+00   1.9241319824E+01   3.7927028201E+01
  7.9875196952E+00   1.9638177247E+01   4.1965050089E+01
  1.1823277244E+01   1.8900305565E+01   4.6455407916E+01
  1.4807033192E+01   1.9544168897E+01   5.0196738513E+01
  1.6215078149E-01   2.3463516421E+01   3.8034281436E+01
  3.9682007943E+00   2.2671912025E+01   4.2207810585E+01
  8.0730627071E+00   2.2965308914E+01   4.6173725461E+01
  1.1410800945E+01   2.3078907349E+01   4.9809258388E+01
  5.3508043562E+01   2.6529423490E+01   4.2068621096E+01
  3.2138555117E+00   2.6908431613E+01   4.5897761616E+01
  7.0755248545E+00   2.6898230793E+01   5.0033647560E+01
  5.3108017573E+01   3.0863725968E+01   4.6227582075E+01
  3.8738114106E+00   3.0701087169E+01   4.9957854825E+01
  5.3517710049E+01   3.4689208392E+01   4.9973719256E+01
  1.0360415447E-01   9.2173663093E-02   7.3945168484E+00
  3.7711068409E+00   5.3472419919E+01   1.1240203148E+01
  7.8518125079E+00   4.3409604162E-01   1.5384558944E+01
  1.1293662616E+01   5.3221770574E+01   1.9085804651E+01
  1.5357664248E+01   5.3463040903E+01   2.2965714977E+01
  1.9473309179E+01   1.0536974650E-01   2.6711565939E+01
  2.3566643940E+01   5.3387747453E+01   3.0965199474E+01
  2.6855852159E+01   5.2971877032E+01   3.4569053394E+01
  3.0167884106E+01   5.3329046630E+01   3.8287806076E+01
  3.4762016374E+01   5.3480087458E+01   4.1943920863E+01
  3.8196196098E+01   4.7545320323E-01   4.6071975103E+01
  4.2493876582E+01   5.3157116540E+01   5.0346204116E+01
  3.9566711943E-02   3.8621749333E+00   1.1364349481E+01
  4.0759151468E+00   3.4704876202E+00   1.5250053361E+01
  7.4456994351E+00   3.8764673091E+00   1.9161694020E+01
  1.1728276986E+01   4.2898584842E+00   2.2890695196E+01
  1.5173548278E+01   3.6704580874E+00   2.6923859098E+01
  1.8723221989E+01   3.7323321391E+00   3.0783845364E+01
  2.2807861091E+01   3.4521900884E+00   3.4721380065E+01
  2.6350389588E+01   3.7546192595E+00   3.8466248149E+01
  3.0568919323E+01   3.4517341050E+00   4.1894455449E+01
  3.4478366700E+01   3.8473454543E+00   4.5901020891E+01
  3.8432610723E+01   4.2361119026E+00   4.9374328195E+01
  5.3445246568E+01   7.6663059204E+00   1.5186922559E+01
  3.5452926160E+00   7.9810209756E+00   1.9307484113E+01
  7.2582499850E+00   7.8131955237E+00   2.2937987894E+01
  1.1990646824E+01   7.5692563003E+00   2.7116481088E+01
  1.5612119828E+01   7.3424871344E+00   3.0554921632E+01
  1.8826960457E+01   7.7805370219E+00   3.4308890173E+01
  2.2706744757E+01   7.5767116887E+00   3.8156438778E+01
  2.7042506675E+01   7.2087981385E+00   4.1643814470E+01
  3.0176639027E+01   7.3152481346E+00   4.5719144707E+01
  3.4528166008E+01   7.1641954575E+00   4.9735485869E+01
  8.3323688387E-02   1.1611570797E+01   1.8659744657E+01
  4.0698999983E+00   1.1723381165E+01   2.2533954029E+01
  7.4034165305E+00   1.1339012481E+01   2.6343169206E+01
  1.1712987721E+01   1.1730432585E+01   3.0736374991E+01
  1.5170686049E+01   1.1081215881E+01   3.4973109629E+01
  1.9608807513E+01   1.1389896765E+01   3.8172179397E+01
  2.2846343401E+01   1.1011869486E+01   4.1626193810E+01
  2.5983773554E+01   1.1182221139E+01   4.5852221116E+01
  3.0158644650E+01   1.1403668079E+01   4.9529256307E+01
  5.3514593637E+01   1.5659391380E+01   2.2308716346E+01
  4.0944197828E+00   1.4861528769E+01   2.6724003318E+01
  7.6637896375E+00   1.5635294089E+01   3.0771859931E+01
  1.1245367750E+01   1.5190136202E+01   3.4304853610E+01
  1.5720473559E+01   1.4654087072E+01   3.8002973637E+01
  1.9208765645E+01   1.5338491568E+01   4.2119198789E+01
  2.3083142371E+01   1.5564139427E+01   4.5820224892E+01
  2.6668000425E+01   1.5503216496E+01   4.9884267146E+01
  3.8051281039E-01   1.9124951163E+01   2.6760463400E+01
  3.8463342755E+00   1.8854320613E+01   3.0556093802E+01
  7.2304144112E+00   1.9422418487E+01   3.4423977261E+01
  1.1133829292E+01   1.9142325599E+01   3.7978644844E+01
  1.4937592033E+01   1.9455303587E+01   4.1816600986E+01
  1.9035797728E+01   1.9484917814E+01   4.6171806730E+01
  2.2808275843E+01   1.9270803520E+01   4.9842213079E+01
  2.1064693599E-01   2.3345186829E+01   3.0292408035E+01
  3.2734264090E+00   2.3010604235E+01   3.4173230526E+01
  7.5265442455E+00   2.3089583680E+01   3.7798204674E+01
  1.1759003772E+01   2.2851211334E+01   4.1800154378E+01
  1.4958279007E+01   2.3157519400E+01   4.6030029991E+01
  1.8973702836E+01   2.3231954427E+01   5.0030607062E+01
  5.3382286333E+01   2.6994250630E+01   3.4557958746E+01
  3.8764421023E+00   2.7096469147E+01   3.8110624156E+01
  7.3474640291E+00   2.6546926439E+01   4.1842910923E+01
  1.0881775630E+01   2.7162160847E+01   4.6209386346E+01
  1.5367191372E+01   2.6556569849E+01   4.9368911587E+01
  2.8262891436E-01   3.0237543851E+01   3.8206302434E+01
  4.1083214319E+00   3.1079978398E+01   4.2471190945E+01
  7.7871622240E+00   3.0849401104E+01   4.5955428243E+01
  1.1096037259E+01   3.0498120403E+01   4.9692974912E+01
  5.3229081959E+01   3.4629378828E+01   4.1714330783E+01
  4.3147805197E+00   3.4585439595E+01   4.6055832409E+01
  7.9809729677E+00   3.4329173535E+01   4.9644314328E+01
  4.0707757090E-01   3.7819640435E+01   4.5512910073E+01
  3.8428599349E+00   3.8060402178E+01   5.0077132847E+01
  2.1921527823E-01   4.1627073519E+01   4.9534715417E+01
  2.2070470381E-01   3.0171339979E-01   1.1156580556E-01
  3.8015030961E+00   5.3358035153E+01   4.2017553879E+00
  7.3253265261E+00   7.2356049263E-02   8.0144867164E+00
  1.1319854742E+01   5.3259126432E+01   1.1376920580E+01
  1.5357240340E+01   5.3444316772E+01   1.5250258532E+01
  1.9618414620E+01   1.4669035991E-01   1.8684305824E+01
  2.3300966824E+01   1.1487794385E-01   2.2773129481E+01
  2.6777423623E+01   5.3123243868E+01   2.6935038275E+01
  3.0903052553E+01   5.3335206253E+01   3.0554519092E+01
  3.3922718064E+01   5.3448678478E+01   3.4562944092E+01
  3.7969600806E+01   5.3431494404E+01   3.7834191361E+01
  4.1782966041E+01   3.5006702208E-01   4.1595769391E+01
  4.5970265098E+01   4.1188792834E-01   4.5353413872E+01
  4.8996101439E+01   8.4926789658E-02   4.9872111788E+01
  2.4646000107E-01   3.8018794705E+00   4.1296979831E+00
  4.3390148269E+00   3.8004897443E+00   7.4779482835E+00
  7.3278020106E+00   4.2563851268E+00   1.1155034786E+01
  1.1496367703E+01   3.7231842282E+00   1.5615009202E+01
  1.5084341737E+01   3.4376857669E+00   1.8689732883E+01
  1.8557526463E+01   3.9490691595E+00   2.3119924260E+01
  2.3486289468E+01   3.7157204289E+00   2.7253907423E+01
  2.6810514803E+01   3.8001466636E+00   3.0339453417E+01
  3.0683324560E+01   3.5757913738E+00   3.4424547407E+01
  3.4497546235E+01   3.9243703646E+00   3.8232548537E+01
  3.8487701211E+01   4.3003683163E+00   4.2232904952E+01
  4.2289426720E+01   3.1307844637E+00   4.6536513523E+01
  4.5873523245E+01   3.9674172587E+00   4.9816845875E+01
  6.9874872576E-02   7.9397912631E+00   7.8007933515E+00
  3.5142494131E+00   7.8878801384E+00   1.1108251961E+01
  7.9773777141E+00   7.4249264624E+00   1.5394085848E+01
  1.1502403093E+01   7.9903425305E+00   1.9026492908E+01
  1.5531170501E+01   7.6068297569E+00   2.2671126004E+01
  1.8907115757E+01   7.7326736591E+00   2.6896019528E+01
  2.2671335483E+01   7.3916297267E+00   3.0562741226E+01
  2.6579268234E+01   7.4338238549E+00   3.4234442027E+01
  3.0721838680E+01   8.0166070708E+00   3.8050423293E+01
  3.4696647372E+01   8.0399332592E+00   4.1660318984E+01
  3.8074850880E+01   7.4195374269E+00   4.5590425284E+01
  4.2394914522E+01   7.4770378564E+00   4.9549880327E+01
  8.1939684094E-02   1.1696013713E+01   1.1463664514E+01
  3.7971441331E+00   1.1082355433E+01   1.5465357847E+01
  7.7365594392E+00   1.1337365841E+01   1.9384991705E+01
  1.1533200940E+01   1.1034486257E+01   2.2811201162E+01
  1.4948565890E+01   1.1415218787E+01   2.7116158888E+01
  1.9100450380E+01   1.1605646570E+01   3.0353409115E+01
  2.3088693317E+01   1.2112066169E+01   3.4559535293E+01
  2.7387797208E+01   1.1875982452E+01   3.8457305941E+01
  3.0433341063E+01   1.1324431460E+01   4.2402518354E+01
  3.4514020646E+01   1.1278146226E+01   4.6191360030E+01
  3.8366427942E+01   1.1349127302E+01   4.9172441651E+01
  3.2692435618E-01   1.5871710038E+01   1.5159013250E+01
  4.2372469414E+00   1.5268681009E+01   1.8887472131E+01
  8.0059142007E+00   1.5526360579E+01   2.2625129708E+01
  1.1720726250E+01   1.5015319896E+01   2.6930875203E+01
  1.5371405916E+01   1.5611672752E+01   3.0091802130E+01
  1.8833777186E+01   1.5512461188E+01   3.4393918556E+01
  2.3050950024E+01   1.4931412573E+01   3.8816647039E+01
  2.6800848774E+01   1.4921942175E+01   4.2922734296E+01
  3.0895030435E+01   1.5540104824E+01   4.5909151796E+01
  3.4774346078E+01   1.5597251356E+01   4.9666989747E+01
  9.1117577246E-02   1.9516710466E+01   1.8769500140E+01
  3.9998180194E+00   1.8714525493E+01   2.3390674341E+01
  7.3862757508E+00   1.9411151330E+01   2.6883780146E+01
  1.1845800754E+01   1.9212312666E+01   3.0635391816E+01
  1.5069693861E+01   1.9143510381E+01   3.4115467125E+01
  1.8918104392E+01   1.9067621660E+01   3.8753361086E+01
  2.3146834523E+01   1.8902353367E+01   4.2533397531E+01
  2.6546449665E+01   1.9012297476E+01   4.6008315946E+01
  3.0757350480E+01   1.9256874224E+01   4.9873449992E+01
  1.0442876250E-01   2.3417646298E+01   2.2789885414E+01
  3.9000237099E+00   2.3408599620E+01   2.6929485727E+01
  7.8774383670E+00   2.2914978007E+01   3.0397073368E+01
  1.1619156676E+01   2.2877062012E+01   3.4370359344E+01
  1.5291106155E+01   2.3307726338E+01   3.7665421755E+01
  1.9174050104E+01   2.3264515064E+01   4.2141727238E+01
  2.2593045158E+01   2.2813890849E+01   4.5856630824E+01
  2.6861808239E+01   2.2906073912E+01   4.9436662948E+01
  5.3451258750E+01   2.6954858503E+01   2.7102779238E+01
  4.4014808528E+00   2.7169770506E+01   3.0309374866E+01
  7.9191788950E+00   2.7268325746E+01   3.4663003080E+01
  1.1102168414E+01   2.6213364894E+01   3.8134268425E+01
  1.4843020930E+01   2.6846073984E+01   4.2334270295E+01
  1.9146184257E+01   2.6731302464E+01   4.6397327085E+01
  2.2976146292E+01   2.6958148291E+01   4.9454923149E+01
  3.9577726840E-01   3.0520743706E+01   3.0869014505E+01
  4.2004988293E+00   3.1005587184E+01   3.4603667009E+01
  8.0956257600E+00   3.0790421175E+01   3.8125511810E+01
  1.1462792830E+01   3.0414630478E+01   4.2112019227E+01
  1.5431358397E+01   3.0994980619E+01   4.5834127562E+01
  1.9146888442E+01   3.0991678567E+01   4.9940947502E+01
  2.0397776131E-02   3.4359165544E+01   3.4285068344E+01
  4.1950271315E+00   3.4137685103E+01   3.8300626019E+01
  7.2366935693E+00   3.4926077831E+01   4.1867508193E+01
  1.1554647944E+01   3.4802176190E+01   4.6169117733E+01
  1.4737206437E+01   3.4644742290E+01   5.0169811973E+01
  1.9004595497E-01   3.8296290119E+01   3.7584949227E+01
  3.4502808566E+00   3.8756829100E+01   4.1892837954E+01
  7.7569105295E+00   3.8065965326E+01   4.6067989058E+01
  1.1861346277E+01   3.8531578692E+01   4.9688710385E+01
  9.7775875779E-02   4.2294534254E+01   4.1887746930E+01
  4.0001095564E+00   4.2262014128E+01   4.5581498925E+01
  7.5779859729E+00   4.1715276664E+01   5.0059930678E+01
  7.7624809693E-02   4.6219396986E+01   4.5244866011E+01
  3.8588205872E+00   4.6338562926E+01   4.9185482597E+01
  5.3342479107E+01   4.9854059809E+01   5.0088651071E+01
  7.7165821711E+00   5.2963063982E+01   2.2856729458E-01
  1.1287150929E+01   5.3158386707E+01   3.8909503785E+00
  1.5747761524E+01   5.3347353219E+01   7.5083351246E+00
  1.9752266136E+01   5.2972305677E+01   1.1449524690E+01
  2.2826307314E+01   5.3353324810E+01   1.5431215537E+01
  2.6820901559E+01   1.4340945357E-01   1.8753532975E+01
  3.0373493917E+01   5.2889813972E+01   2.3150239763E+01
  3.4376190866E+01   5.3250635265E+01   2.6849710303E+01
  3.8820868226E+01   2.8984663398E-01   3.0625054499E+01
  4.1774545482E+01   1.9606679307E-01   3.4703135093E+01
  4.5779840973E+01   2.8244662714E-01   3.7887893108E+01
  5.0111362280E+01   4.0071345046E-01   4.2383741337E+01
  3.8474879184E+00   3.1676644264E+00   1.5371065475E-01
  7.9060560105E+00   4.0036775367E+00   3.8997065929E+00
  1.1354704231E+01   3.6230276737E+00   7.3528830991E+00
  1.4958618957E+01   3.9820467178E+00   1.1485851297E+01
  1.8934171291E+01   4.1462019141E+00   1.5218598949E+01
  2.2673527770E+01   4.1095511262E+00   1.8979617688E+01
  2.6395839196E+01   3.8159024979E+00   2.2651286248E+01
  3.0784821584E+01   3.9822582772E+00   2.6838626414E+01
  3.4653008309E+01   3.5648107184E+00   3.0337589671E+01
  3.8390063306E+01   4.0232560197E+00   3.4488772350E+01
  4.1996897163E+01   4.0004245528E+00   3.8375166039E+01
  4.5867194458E+01   4.2416456055E+00   4.2074350762E+01
  4.9516033479E+01   3.6167661672E+00   4.6346881475E+01
  4.2897799577E-02   7.9410052725E+00   5.9751489507E-02
  3.9281189526E+00   7.4891952370E+00   3.9738129333E+00
  7.5226281927E+00   8.0066911895E+00   7.9733658637E+00
  1.1433350594E+01   7.2030404020E+00   1.1641001884E+01
  1.5367341112E+01   7.6590945910E+00   1.5108280448E+01
  1.9332765388E+01   7.5120596450E+00   1.8961165656E+01
  2.3104163796E+01   7.2071292223E+00   2.3440938941E+01
  2.6972280549E+01   7.7960083343E+00   2.7280537213E+01
  3.0955333475E+01   7.9157557206E+00   3.0569645369E+01
  3.4818167919E+01   7.2318426230E+00   3.4450984372E+01
  3.8486370705E+01   8.2191740973E+00   3.8009557112E+01
  4.1882433774E+01   7.5774254503E+00   4.1886136065E+01
  4.6112490341E+01   7.8317222082E+00   4.5932404471E+01
  4.9970013618E+01   7.6082426427E+00   4.9767010611E+01
  1.4571626842E-01   1.1603143582E+01   3.4447185870E+00
  4.2102939705E+00   1.1833869821E+01   7.0338173468E+00
  7.2894155342E+00   1.1124348870E+01   1.1863918947E+01
  1.1758739327E+01   1.1525575644E+01   1.5685916833E+01
  1.5296997588E+01   1.1755147030E+01   1.9059653439E+01
  1.8945269401E+01   1.1099695340E+01   2.2666456087E+01
  2.2766398445E+01   1.1325394755E+01   2.6641606214E+01
  2.6993314771E+01   1.1538720091E+01   3.0987015232E+01
  3.0707303905E+01   1.1458296477E+01   3.4716757106E+01
  3.4767770994E+01   1.1763292333E+01   3.8136823304E+01
  3.8045803699E+01   1.1321309757E+01   4.1811586977E+01
  4.2074708149E+01   1.1400242614E+01   4.5972886731E+01
  4.6137487213E+01   1.1991044186E+01   4.9186288530E+01
  1.0163817305E-01   1.5664131586E+01   7.1336673420E+00
  3.5832459571E+00   1.5286291298E+01   1.1086024206E+01
  8.5173949090E+00   1.5874544355E+01   1.5712241606E+01
  1.1667966217E+01   1.5515336657E+01   1.9430078589E+01
  1.5500294927E+01   1.5824928303E+01   2.2881431081E+01
  1.9064295915E+01   1.5253807268E+01   2.6970390093E+01
  2.3593629115E+01   1.5154229768E+01   3.0536848559E+01
  2.6728608329E+01   1.5222126054E+01   3.4530032416E+01
  3.0791056993E+01   1.5821656455E+01   3.7772527571E+01
  3.4067641699E+01   1.5292475159E+01   4.2214008868E+01
  3.8204381181E+01   1.5452760643E+01   4.5698690266E+01
  4.1831608129E+01   1.5229306777E+01   4.9776022241E+01
  5.3425080243E+01   1.9323268460E+01   1.1694982553E+01
  4.2546161456E+00   1.8931150897E+01   1.4891881473E+01
  6.8817235540E+00   1.9394804371E+01   1.9463522515E+01
  1.1489896714E+01   1.9516762882E+01   2.3304293251E+01
  1.5616072916E+01   1.9491496543E+01   2.6696626768E+01
  1.9562430790E+01   1.9401412696E+01   3.0814600826E+01
  2.2913052585E+01   1.8924359219E+01   3.4917189164E+01
  2.6399267681E+01   1.9348915569E+01   3.8271364994E+01
  3.0478442027E+01   1.9131677105E+01   4.2123786435E+01
  3.4193869454E+01   1.9249319856E+01   4.5551599003E+01
  3.8724518903E+01   1.9303911500E+01   4.9975508914E+01
  5.3274760210E+01   2.2960594048E+01   1.5404563604E+01
  3.7348490918E+00   2.2791962954E+01   1.8598410809E+01
  7.4534730883E+00   2.2749451762E+01   2.3499462811E+01
  1.1702182590E+01   2.2382743994E+01   2.7177777717E+01
  1.5154915399E+01   2.2947744791E+01   3.0413224722E+01
  1.8637848665E+01   2.2974279611E+01   3.3939380970E+01
  2.2765240091E+01   2.3153999681E+01   3.7877435119E+01
  2.6657746821E+01   2.2580872664E+01   4.2070386090E+01
  3.1226217532E+01   2.3114503450E+01   4.5425940632E+01
  3.4343241973E+01   2.2934724972E+01   5.0060775644E+01
  5.3215393949E+01   2.6628775989E+01   1.9352760657E+01
  3.9459115658E+00   2.6542345048E+01   2.3242473466E+01
  8.0527616998E+00   2.6633343053E+01   2.7061618527E+01
  1.1634247982E+01   2.6296827482E+01   3.0637331280E+01
  1.5524343618E+01   2.6920326199E+01   3.4293267017E+01
  1.9047360806E+01   2.6511919520E+01   3.8335420228E+01
  2.3148681184E+01   2.6842232033E+01   4.2356581448E+01
  2.7000293933E+01   2.6711344085E+01   4.5957632397E+01
  3.0829867110E+01   2.6531153693E+01   4.9651321618E+01
  5.3077021072E+01   3.0833709510E+01   2.2948979037E+01
  4.0063803234E+00   3.0704648523E+01   2.6770829525E+01
  7.6761572303E+00   3.0860472537E+01   3.0612125916E+01
  1.2040945848E+01   3.0560181814E+01   3.4240397453E+01
  1.4974402557E+01   3.0782840765E+01   3.7956099540E+01
  1.8958051397E+01   3.0739286380E+01   4.1965563045E+01
  2.2649283372E+01   3.1053317949E+01   4.5817666289E+01
  2.6745080746E+01   3.0747360528E+01   4.9782142721E+01
  5.3044463563E+01   3.4580814392E+01   2.6841846907E+01
  3.8639756377E+00   3.4358743697E+01   3.0246278027E+01
  8.1541279805E+00   3.4504908267E+01   3.4844908498E+01
  1.1628070166E+01   3.4617297091E+01   3.8596569736E+01
  1.5363281917E+01   3.4503085070E+01   4.2025558653E+01
  1.9114649775E+01   3.4935978519E+01   4.5788399358E+01
  2.3317266366E+01   3.4186292318E+01   4.9678193550E+01
  5.3516827494E+01   3.8606190365E+01   3.0578865915E+01
  4.0149533610E+00   3.8187451336E+01   3.4454699057E+01
  7.7381128632E+00   3.8492436069E+01   3.8408286003E+01
  1.1145319941E+01   3.8677165163E+01   4.2323153250E+01
  1.4779549404E+01   3.8512328670E+01   4.5765788987E+01
  1.8858950320E+01   3.8726148129E+01   4.9510581395E+01
  5.2986604574E+01   4.1844640667E+01   3.4159731121E+01
  3.5831463098E+00   4.2222255115E+01   3.8370150084E+01
  7.6581958266E+00   4.2215265268E+01   4.2086371238E+01
  1.0951040786E+01   4.2327768259E+01   4.6106811234E+01
  1.5617580042E+01   4.2027042583E+01   4.9739200636E+01
  5.3458042274E+01   4.6267244376E+01   3.8012583531E+01
  4.0620573786E+00   4.5939330482E+01   4.1684828777E+01
  7.3821105336E+00   4.5916022619E+01   4.5626479445E+01
  1.1562674852E+01   4.6094202871E+01   4.9827325808E+01
  5.3450844585E+01   5.0075913607E+01   4.1958154851E+01
  3.7204835994E+00   5.0178036114E+01   4.5996142710E+01
  7.7919286564E+00   4.9467476042E+01   4.9662533785E+01
  1.5065767834E+01   4.7685051273E-02   5.3439038080E+01
  1.9742707807E+01   5.3131795717E+01   3.7893674157E+00
  2.2745031512E+01   5.3353610102E+01   7.5746278356E+00
  2.7004832739E+01   1.3386252653E-01   1.1735324903E+01
  3.0423363823E+01   2.2207133630E-01   1.5690057812E+01
  3.4343282366E+01   5.3415171222E+01   1.9246003103E+01
  3.7885930312E+01   5.3244061834E+01   2.3024795468E+01
  4.2332880437E+01   5.3541882869E+01   2.6364428178E+01
  4.5468547542E+01   5.3484648679E+01   3.0638576159E+01
  5.0491364331E+01   8.0092390997E-02   3.4383030886E+01
  1.1746681233E+01   3.9943046108E+00   5.3049339126E+01
  1.5410175710E+01   3.3603159617E+00   3.6449679160E+00
  1.9479830050E+01   3.7263056560E+00   7.2180015497E+00
  2.2414175388E+01   3.7356274939E+00   1.2052888175E+01
  2.6680302554E+01   3.9365770771E+00   1.5660814929E+01
  3.0256907663E+01   4.2230298028E+00   1.8657231295E+01
  3.4547173625E+01   3.2244944058E+00   2.3711980365E+01
  3.8424693292E+01   3.5988379337E+00   2.6962067429E+01
  4.2375576229E+01   3.4313269289E+00   3.1052932601E+01
  4.5582551455E+01   3.8316917582E+00   3.4440188482E+01
  4.9750119127E+01   4.0995226846E+00   3.8493254688E+01
  8.0973531048E+00   7.2271456548E+00   5.3382827057E+01
  1.1211246151E+01   8.0517292506E+00   3.4794689119E+00
  1.4890467304E+01   7.6182753053E+00   7.7723317332E+00
  1.8637579477E+01   7.1633064557E+00   1.0738557887E+01
  2.2763990828E+01   8.0210913722E+00   1.5053987466E+01
  2.6814772317E+01   7.6385667119E+00   1.9378460725E+01
  3.0238870405E+01   7.7477411070E+00   2.3209897699E+01
  3.4462872637E+01   7.6254768904E+00   2.7107544347E+01
  3.8432050533E+01   7.4150092256E+00   3.0740178713E+01
  4.2074148103E+01   7.5690217571E+00   3.4604994243E+01
  4.6346800957E+01   7.6522860614E+00   3.8275854112E+01
  4.9425963822E+01   7.8987070711E+00   4.1919899878E+01
  3.8270753827E+00   1.1506791986E+01   5.3245959473E+01
  7.4708685451E+00   1.1490108367E+01   3.7651540435E+00
  1.1368684397E+01   1.1448523325E+01   7.8531578000E+00
  1.5071297621E+01   1.1572232432E+01   1.1322418036E+01
  1.8970776589E+01   1.1644214817E+01   1.5658956883E+01
  2.2929826048E+01   1.1345726829E+01   1.8671763113E+01
  2.7052840302E+01   1.1235098186E+01   2.2797176776E+01
  3.0253765026E+01   1.2228409350E+01   2.6710876910E+01
  3.4429104184E+01   1.1763628722E+01   3.0639237346E+01
  3.8666780878E+01   1.1378429970E+01   3.3688372334E+01
  4.1995140210E+01   1.1847435932E+01   3.8013092493E+01
  4.6098635492E+01   1.1868539976E+01   4.1656847971E+01
  4.9604470954E+01   1.1479252597E+01   4.5697118283E+01
  2.0395794068E-01   1.5378610932E+01   5.3338663309E+01
  4.1281069189E+00   1.5766170020E+01   4.0092335416E+00
  7.7905804300E+00   1.5133711922E+01   7.8675102017E+00
  1.1313830880E+01   1.4867519445E+01   1.1789153586E+01
  1.5875001863E+01   1.5070522641E+01   1.4921438724E+01
  1.8974491612E+01   1.5512499359E+01   1.8885028081E+01
  2.2379093724E+01   1.4819859945E+01   2.2722829354E+01
  2.6498255180E+01   1.5014098481E+01   2.6602129178E+01
  3.0159843370E+01   1.5436886754E+01   3.1153951918E+01
  3.4492228049E+01   1.5291292329E+01   3.4539018147E+01
  3.8800794547E+01   1.5931531035E+01   3.8168005358E+01
  4.1812330557E+01   1.4852213318E+01   4.2049698659E+01
  4.5861508506E+01   1.5239921265E+01   4.5780825191E+01
  4.9400524311E+01   1.5538222939E+01   5.0011472294E+01
  3.0799610431E-01   1.9152954068E+01   3.4930942398E+00
  4.4817831783E+00   1.8837184665E+01   7.5544068746E+00
  7.9842666393E+00   1.9212454028E+01   1.1827523418E+01
  1.1823354603E+01   1.9565559735E+01   1.5125854692E+01
  1.5274168601E+01   1.9281770960E+01   1.9295280515E+01
  1.8979629675E+01   1.9315449110E+01   2.2724314448E+01
  2.2860882901E+01   1.9104199096E+01   2.7085446262E+01
  2.6734287280E+01   1.9040365533E+01   3.0852455786E+01
  3.0108228950E+01   1.8971134476E+01   3.4337943137E+01
  3.4628763666E+01   1.9225086599E+01   3.7806932118E+01
  3.8069175898E+01   1.9071086104E+01   4.2226923825E+01
  4.2091477175E+01   1.9307154041E+01   4.5772078598E+01
  4.5585337159E+01   1.9189810471E+01   4.9641686146E+01
  1.5411326558E-01   2.3289407218E+01   8.0545110300E+00
  3.7387666896E+00   2.2821955498E+01   1.1549191908E+01
  7.7100621050E+00   2.2910741512E+01   1.5559452256E+01
  1.1219681897E+01   2.2940068671E+01   1.9197929013E+01
  1.4987545076E+01   2.2996437642E+01   2.2662081655E+01
  1.8976185635E+01   2.3103258115E+01   2.7048096495E+01
  2.3086456477E+01   2.2902537412E+01   3.0804736398E+01
  2.7173380243E+01   2.3126621886E+01   3.4955099494E+01
  3.0415293279E+01   2.3386485084E+01   3.8425780426E+01
  3.4305594866E+01   2.2926203418E+01   4.1864236227E+01
  3.8186686360E+01   2.2750408852E+01   4.5534523774E+01
  4.2294627395E+01   2.3241319559E+01   4.9554078831E+01
  3.3482243184E-01   2.6403394918E+01   1.1981273817E+01
  3.7394239343E+00   2.6632330117E+01   1.5335241026E+01
  7.8279837449E+00   2.6386590971E+01   1.9306761441E+01
  1.1887005093E+01   2.7204423318E+01   2.3298984488E+01
  1.5406426027E+01   2.6340255468E+01   2.6702658342E+01