:MDSTEP: 20
:R(Bohr):
  3.8057958013E+01   3.5182062156E-02   3.0681219868E+01
  4.1031327799E+00   3.7904061560E+01   3.5070996368E+01
  3.8151891336E+01   3.3691251394E+00   3.4364161592E+01
  3.7974649316E+01   3.8051272384E+01   2.2828044986E+01
  3.6101396127E+00   2.7690187249E-01   2.6654591833E+01
  7.1464755960E+00   2.3178502741E-01   3.0293488026E+01
  1.0710416182E+01   3.8208805487E+01   3.4094887311E+01
  3.8059151853E+01   3.7250158692E+00   2.6813563213E+01
  3.8050706721E+00   3.7225502375E+00   3.0252460189E+01
  7.2816571460E+00   3.5474120617E+00   3.4324906866E+01
  3.8146895674E+01   7.6859354450E+00   3.0568663750E+01
  3.8944504781E+00   7.2390571004E+00   3.4709685719E+01
  2.3484553091E-02   1.1075552240E+01   3.4914806933E+01
  5.5482696063E-01   3.8199860489E+01   1.5094560312E+01
  3.0174641429E+00   4.2880628281E-01   1.8802181291E+01
  7.7113841770E+00   3.7636084967E+01   2.2638179927E+01
  1.1169506642E+01   3.1201562807E-01   2.6594946029E+01
  1.5147135705E+01   3.8031572080E+01   3.0174312937E+01
  1.8981801065E+01   3.7984353471E+01   3.4116142613E+01
  3.8118292219E+01   4.4187039468E+00   1.9010967151E+01
  3.9213163210E+00   3.5900660088E+00   2.2998854852E+01
  8.2566817631E+00   3.8191278335E+00   2.6730873911E+01
  1.1347418775E+01   4.2510136186E+00   3.0344720500E+01
  1.5347278475E+01   4.0938266085E+00   3.4558447223E+01
  1.7212819592E-01   7.9088943885E+00   2.2989523656E+01
  4.1423524734E+00   7.0902899163E+00   2.6220317972E+01
  7.1025986288E+00   7.3051202239E+00   3.0889906478E+01
  1.1133002124E+01   7.0039610946E+00   3.4967926759E+01
  3.7791949671E+01   1.1198753994E+01   2.7298275767E+01
  4.1164410011E+00   1.1691038003E+01   3.0984983769E+01
  7.4775535047E+00   1.2171643572E+01   3.4384250210E+01
  3.8161185367E+01   1.5179688503E+01   3.0241217252E+01
  4.1772879352E+00   1.5844578252E+01   3.3924630596E+01
  3.7890386949E+01   1.9038951827E+01   3.4185910258E+01
  3.8076538055E+01   4.3645683242E-01   7.8043779060E+00
  3.7890909193E+00   3.8127325612E+01   1.1124525981E+01
  7.8351695974E+00   2.6620504697E-01   1.5271621874E+01
  1.1878233677E+01   2.9339216355E-01   1.8979921830E+01
  1.4827256099E+01   3.7940131874E+01   2.2911615178E+01
  1.9100996625E+01   3.7875228237E+01   2.7055188446E+01
  2.3239204119E+01   1.2155486229E-01   3.0397244996E+01
  2.6928436555E+01   1.2819626470E-01   3.4362077106E+01
  3.8178809151E+01   3.6816589136E+00   1.1513053890E+01
  4.3829748860E+00   3.9633493138E+00   1.5726922653E+01
  7.5343859175E+00   3.3622238274E+00   1.9752452394E+01
  1.1250863578E+01   3.5620877029E+00   2.2919452909E+01
  1.5545054298E+01   3.9801818869E+00   2.7065443683E+01
  1.9043994881E+01   3.6710884925E+00   3.0881821735E+01
  2.3265853699E+01   4.1405472820E+00   3.4789943572E+01
  3.7767823299E+01   7.4616199723E+00   1.5225968414E+01
  3.5967148172E+00   7.5536071784E+00   1.8977749406E+01
  7.9356475459E+00   7.5265399724E+00   2.3291146162E+01
  1.1490590232E+01   8.1544085526E+00   2.6611408835E+01
  1.4902598100E+01   7.7360766795E+00   3.0293911680E+01
  1.9108779733E+01   7.3160584461E+00   3.4725149146E+01
  3.7877275013E+01   1.1125363239E+01   1.9225987739E+01
  4.0172085161E+00   1.1575078010E+01   2.3226145418E+01
  7.0376952150E+00   1.1479945853E+01   2.6995156703E+01
  1.1549131246E+01   1.1388524435E+01   3.0421710686E+01
  1.5828296240E+01   1.1104351577E+01   3.4359983932E+01
  3.7863615081E+01   1.5133615822E+01   2.3285053370E+01
  3.6344290862E+00   1.5440195830E+01   2.6808941289E+01
  7.7625594231E+00   1.5648316177E+01   3.0112333151E+01
  1.1516696298E+01   1.4566374426E+01   3.4481515947E+01
  3.8075710698E+01   1.9239759315E+01   2.6829161370E+01
  4.1257452736E+00   1.9606413891E+01   3.0607303575E+01
  7.9693603265E+00   1.8979597335E+01   3.4287713243E+01
  1.9828353474E-01   2.2884808028E+01   3.0480384037E+01
  4.2887995916E+00   2.3290669277E+01   3.4832129508E+01
  3.8013849203E+01   2.6392563566E+01   3.4616784444E+01
  3.8240552851E+01   3.7985690227E+01   3.7852874817E+01
  3.2275399860E+00   6.9041102240E-02   4.0312015791E+00
  7.5617490860E+00   9.7880604430E-02   7.1564434811E+00
  1.1687890821E+01   1.6198490392E-01   1.1546529986E+01
  1.5545871456E+01   3.8062232049E+01   1.5752441829E+01
  1.8648646413E+01   6.3476408168E-02   1.9315513902E+01
  2.3193801465E+01   3.8053980621E+01   2.3100220544E+01
  2.6782618352E+01   4.8549056461E-02   2.6610647818E+01
  3.1053748650E+01   1.3548249633E-03   3.0810502870E+01
  3.4416346837E+01   3.7951328514E+01   3.4734843786E+01
  3.8530899192E-01   4.2468458403E+00   3.6652371099E+00
  3.6789231541E+00   3.7600469053E+00   8.1287254124E+00
  8.0215858848E+00   3.8877533166E+00   1.1486419184E+01
  1.1454046015E+01   3.6129155350E+00   1.5185749212E+01
  1.5083062784E+01   3.9965076261E+00   1.9059525756E+01
  1.9010450332E+01   3.5803702092E+00   2.2843454097E+01
  2.2961344392E+01   3.8170651604E+00   2.6416562946E+01
  2.7307941169E+01   3.6344746511E+00   3.0114191689E+01
  3.0821992448E+01   3.6891406793E+00   3.4243195505E+01
  1.3705428669E-01   7.8765731446E+00   7.6143342163E+00
  3.4893889255E+00   7.6310279411E+00   1.1525048166E+01
  7.8467670613E+00   7.7166458261E+00   1.5630589872E+01
  1.1491525135E+01   7.8549010968E+00   1.8901231723E+01
  1.5473156034E+01   7.0807553608E+00   2.3075098441E+01
  1.9338921894E+01   7.1450998313E+00   2.6902366463E+01
  2.2744746601E+01   7.3388890087E+00   3.0833572115E+01
  2.7067574230E+01   7.1633703813E+00   3.4451183238E+01
  1.4013656176E-01   1.1495966231E+01   1.1778124826E+01
  3.7244468839E+00   1.1221585009E+01   1.5869383430E+01
  7.4442871453E+00   1.0915313229E+01   1.9152383281E+01
  1.1408868803E+01   1.1587438354E+01   2.2892966354E+01
  1.5582968347E+01   1.1562599395E+01   2.7130312188E+01
  1.9624807634E+01   1.1075295776E+01   3.0304987009E+01
  2.2378768607E+01   1.1073388441E+01   3.4236305823E+01
  2.3134385326E-01   1.5352282821E+01   1.5425834456E+01
  4.0240895870E+00   1.6014145136E+01   1.8559128923E+01
  7.3072076256E+00   1.5754961103E+01   2.3110825419E+01
  1.1970423182E+01   1.5637123039E+01   2.7303679191E+01
  1.5475144542E+01   1.5276116594E+01   3.1058956542E+01
  1.9635972160E+01   1.5952560534E+01   3.4759670880E+01
  3.7682287928E+01   1.9096294322E+01   1.8967740683E+01
  3.2372337235E+00   1.9154720187E+01   2.2789802951E+01
  8.0020439516E+00   1.9392549958E+01   2.6867191461E+01
  1.1774926407E+01   1.9073270927E+01   3.0681393720E+01
  1.4808420747E+01   1.8850423910E+01   3.4134928930E+01
  1.0763740404E-01   2.3423772704E+01   2.2944087139E+01
  3.9537093605E+00   2.2530151443E+01   2.6336919686E+01
  7.9333184632E+00   2.2945132949E+01   3.0534781413E+01
  1.1387663371E+01   2.2930038468E+01   3.4279432175E+01
  3.8231539426E+01   2.6762171479E+01   2.6689389154E+01
  3.1864166496E+00   2.6629248276E+01   3.0473831399E+01
  6.8615692476E+00   2.7365477559E+01   3.4146450751E+01
  3.7760620030E+01   3.0084705321E+01   3.1297054090E+01
  3.8442807031E+00   3.0806009508E+01   3.4689243645E+01
  3.8211290232E+01   3.4457018367E+01   3.4386721964E+01
  7.6623468298E+00   3.7956933326E+01   3.4919634956E-01
  1.1520770993E+01   3.8163501488E+01   4.0034989171E+00
  1.5590867188E+01   3.8069941941E-01   7.6018982798E+00
  1.8894321166E+01   9.4282692651E-02   1.1663451288E+01
  2.3001119659E+01   3.8147257126E+01   1.5267679896E+01
  2.7079997694E+01   3.7991903125E+01   1.8785375188E+01
  3.1284862356E+01   3.8239032055E+01   2.2960246704E+01
  3.4404131431E+01   2.2081869195E-01   2.6946481677E+01
  3.5174062191E+00   3.6197517869E+00   3.8071490258E+01
  7.9223763307E+00   4.0418114849E+00   3.9399735600E+00
  1.1476448084E+01   3.6289757662E+00   7.4910568922E+00
  1.5698380337E+01   3.8316421224E+00   1.2025430604E+01
  1.9248810437E+01   3.7297652249E+00   1.5488721669E+01
  2.3153520147E+01   3.4526653468E+00   1.9547304284E+01
  2.6657761902E+01   3.4757314031E+00   2.2951977077E+01
  3.0890100303E+01   3.5459162851E+00   2.6373046175E+01
  3.4229481737E+01   4.2799532896E+00   3.0700951266E+01
  3.7928163692E+01   7.3972994752E+00   8.7662997366E-02
  3.6521125364E+00   7.6254252090E+00   4.0067964968E+00
  7.1978229644E+00   7.9801948757E+00   7.9365192208E+00
  1.1447904735E+01   7.3679681139E+00   1.1827764333E+01
  1.5365313097E+01   7.1226361769E+00   1.5490753527E+01
  1.9289796330E+01   7.3751863896E+00   1.9183008319E+01
  2.2822789508E+01   7.8806883839E+00   2.3292331959E+01
  2.6469298705E+01   7.6087286731E+00   2.6548050125E+01
  3.0386838169E+01   7.5825224335E+00   3.0765621476E+01
  3.4759529911E+01   7.2491318694E+00   3.4712097232E+01
  3.0781703674E-01   1.1296575285E+01   4.1185935552E+00
  3.5365314020E+00   1.1255777188E+01   7.5812475151E+00
  7.4822865267E+00   1.2086547026E+01   1.1269820882E+01
  1.1762314147E+01   1.1165623344E+01   1.5122464656E+01
  1.4981049957E+01   1.1415423981E+01   1.8866309019E+01
  1.9259500062E+01   1.0998556353E+01   2.2996338906E+01
  2.3291288102E+01   1.1538945627E+01   2.6690666123E+01
  2.6970316620E+01   1.1211098128E+01   3.0657614892E+01
  3.0346871221E+01   1.1556930103E+01   3.3930128182E+01
  3.2615556190E-01   1.5574694878E+01   7.1669565695E+00
  3.6782157032E+00   1.5001397482E+01   1.1499259599E+01
  8.1281240472E+00   1.5523209464E+01   1.5286953416E+01
  1.1305071117E+01   1.4885118249E+01   1.8781571483E+01
  1.4716469927E+01   1.5492878733E+01   2.3086243556E+01
  1.8662388128E+01   1.5722069343E+01   2.6962825021E+01
  2.2828229514E+01   1.5116921857E+01   3.0617234776E+01
  2.6949967012E+01   1.5534731661E+01   3.4182282097E+01
  7.0005061927E-02   1.8903512552E+01   1.0940551383E+01
  3.5111560844E+00   1.9416847142E+01   1.5097026029E+01
  8.0239045429E+00   1.8988639433E+01   1.8973293468E+01
  1.1512243733E+01   1.9089017220E+01   2.2635769441E+01
  1.5367905839E+01   1.9346635410E+01   2.6033241958E+01
  1.9079252097E+01   1.9257079867E+01   3.0704175791E+01
  2.3192723086E+01   1.9546059512E+01   3.4649990137E+01
  3.8186732408E+01   2.2752948472E+01   1.5205469203E+01
  3.4301083348E+00   2.2648508245E+01   1.9145454712E+01
  7.3316422620E+00   2.3210748239E+01   2.2811614414E+01
  1.1217846462E+01   2.3350306701E+01   2.6928692035E+01
  1.5330329635E+01   2.3366205436E+01   3.0724339012E+01
  1.8914686115E+01   2.3012975476E+01   3.4473056130E+01
  1.9316357272E-01   2.6995485120E+01   1.8796039002E+01
  3.2965541053E+00   2.7127352172E+01   2.2970502765E+01
  7.5892465360E+00   2.6787263467E+01   2.7147743249E+01
  1.1795551441E+01   2.6878340719E+01   3.0299385693E+01
  1.4960468832E+01   2.6912410266E+01   3.5034383315E+01
  3.8063886637E+01   3.0804451151E+01   2.3416653195E+01
  3.7019540235E+00   3.0689318339E+01   2.6760184267E+01
  7.7186929165E+00   3.0766480537E+01   3.0817813948E+01
  1.1123275088E+01   3.0050043010E+01   3.4791340981E+01
  3.7689314718E+01   3.4805446340E+01   2.6596533805E+01
  3.8912139153E+00   3.4599029599E+01   3.0637510086E+01
  7.9629402884E+00   3.4134564695E+01   3.4144468282E+01
  1.5580973879E+01   3.8061561522E+01   1.9142135638E-01
  1.9202338769E+01   3.8204734100E+01   3.8603012207E+00
  2.2562861235E+01   3.9260456710E-02   7.5817760743E+00
  2.6440974172E+01   3.6824617182E-01   1.1263301594E+01
  3.1025226090E+01   3.8053822707E+01   1.5465021167E+01
  3.4908685081E+01   9.5878964710E-03   1.9193940435E+01
  1.2037335581E+01   3.3529592214E+00   2.0423951173E-01
  1.5347161105E+01   3.4128875216E+00   4.0256485340E+00
  1.9361350365E+01   3.7504764497E+00   7.9805597854E+00
  2.3213661918E+01   3.9125248073E+00   1.1489178117E+01
  2.6711970159E+01   3.5739041824E+00   1.5175845581E+01
  3.0162480445E+01   3.7496478655E+00   1.9103236518E+01
  3.4237192058E+01   4.1950494981E+00   2.2558619123E+01
  7.6530043544E+00   7.8103468158E+00   5.5038207771E-01
  1.2226875369E+01   7.4900330911E+00   3.5435000209E+00
  1.5698289106E+01   7.9502156250E+00   8.1919780961E+00
  1.9240903114E+01   7.4034324709E+00   1.1883547618E+01
  2.3202664256E+01   7.5882892702E+00   1.4792369370E+01
  2.6221436528E+01   7.3843427579E+00   1.8692904921E+01
  3.0328336745E+01   7.9335386329E+00   2.2643814239E+01
  3.4063451253E+01   7.8793401339E+00   2.6456132732E+01
  3.8402739936E+00   1.1594457104E+01   3.8027001033E+01
  6.9668333269E+00   1.1611731357E+01   4.0180355028E+00
  1.1729052972E+01   1.1089380448E+01   8.1962630486E+00
  1.5775249091E+01   1.1552904111E+01   1.1524125181E+01
  1.8957572478E+01   1.1256920591E+01   1.5015680710E+01
  2.2765917950E+01   1.1427544575E+01   1.9199789799E+01
  2.6536952280E+01   1.1587003050E+01   2.2662839954E+01
  3.0029906770E+01   1.1571169829E+01   2.6874413130E+01
  3.4857251345E+01   1.1553285121E+01   3.1187847540E+01
  6.6025515263E-03   1.4999228448E+01   3.7789018670E+01
  3.9235325080E+00   1.5320850147E+01   3.6744087069E+00
  7.7478047614E+00   1.5531214320E+01   7.5010722136E+00
  1.1762010407E+01   1.5170731522E+01   1.1703498708E+01
  1.5628326297E+01   1.5186058526E+01   1.5176177494E+01
  1.9111019897E+01   1.5468849685E+01   1.9116667388E+01
  2.3050364336E+01   1.5444668903E+01   2.2884471790E+01
  2.6595802038E+01   1.5094228004E+01   2.6911994454E+01
  3.1043124934E+01   1.5487252106E+01   3.0688555917E+01
  3.4413854653E+01   1.5162407561E+01   3.4821021372E+01
  1.8543938598E-01   1.9276116500E+01   3.4285226215E+00
  3.7120884182E+00   1.8937248825E+01   7.5765428185E+00
  7.6192549423E+00   1.9464916899E+01   1.1611110454E+01
  1.1343322792E+01   1.9425491057E+01   1.5339454361E+01
  1.5301987778E+01   1.9410402243E+01   1.8904148591E+01
  1.9398702418E+01   1.9163291523E+01   2.2680729985E+01
  2.2794591643E+01   1.9211766817E+01   2.6323469860E+01
  2.6986198501E+01   1.8836744170E+01   3.0249482832E+01
  3.0619631419E+01   1.9026186657E+01   3.4155478313E+01
  3.8134464008E+01   2.3307259126E+01   7.9383334292E+00
  3.7424111856E+00   2.2703567213E+01   1.1597153017E+01
  7.5957069463E+00   2.2989984890E+01   1.5313431465E+01
  1.1055557688E+01   2.3117475515E+01   1.9222770881E+01
  1.5220995986E+01   2.2993066402E+01   2.3133853993E+01
  1.9289924991E+01   2.3137638362E+01   2.6837340694E+01
  2.3411277424E+01   2.3145780545E+01   3.0633733983E+01
  2.6685017204E+01   2.2786986513E+01   3.4075785123E+01
  1.9953285491E-01   2.6230476630E+01   1.1857228937E+01
  3.9351334779E+00   2.7156954433E+01   1.4886187467E+01
  7.9052845639E+00   2.7339106411E+01   1.8945753172E+01
  1.1767401052E+01   2.7009315199E+01   2.2933470603E+01
  1.5507792942E+01   2.6894960479E+01   2.6694777018E+01
  1.9528671720E+01   2.6467172939E+01   3.0495823370E+01
  2.3009547043E+01   2.7066739065E+01   3.4121482885E+01
  3.7961278790E+01   3.0540121949E+01   1.5596658381E+01
  3.9484538483E+00   3.0367830712E+01   1.9036095280E+01
  7.7221927182E+00   3.0230940374E+01   2.3148141569E+01
  1.1779079785E+01   3.1160436090E+01   2.6803087703E+01
  1.5678885551E+01   3.0454804632E+01   3.0718212639E+01
  1.9269287079E+01   3.0508111732E+01   3.4396073733E+01
  2.6055421628E-01   3.4119265604E+01   1.8948026004E+01
  3.6171857584E+00   3.4107975797E+01   2.2908109586E+01
  8.0250879957E+00   3.4814091933E+01   2.6688828707E+01
  1.1292092455E+01   3.4403213981E+01   3.0478872593E+01
  1.5018597500E+01   3.4530135764E+01   3.4269046337E+01
  2.3161128012E+01   1.7495229213E-01   4.6901329592E-01
  2.6564843434E+01   3.1614437479E-01   3.6837460797E+00
  3.0790120540E+01   3.8164828577E+01   7.8832052332E+00
  3.4419368320E+01   5.6559335652E-01   1.1335970341E+01
  1.9135590064E+01   3.8593226803E+00   7.5112458978E-02
  2.3195998252E+01   4.0833878080E+00   3.9408051846E+00
  2.6919677892E+01   3.5296255205E+00   7.3860760564E+00
  3.0509426265E+01   3.9365234628E+00   1.1052105130E+01
  3.4494612821E+01   3.7200114221E+00   1.4939161428E+01
  1.4855670048E+01   7.7444925267E+00   3.7925641914E+01
  1.9191235797E+01   7.3659431672E+00   3.7573872226E+00
  2.2867793285E+01   7.7348461357E+00   8.1180694822E+00
  2.7292136795E+01   8.0884925999E+00   1.1367539579E+01
  3.0806347370E+01   7.5123571087E+00   1.5448086520E+01
  3.3965354869E+01   7.8493603806E+00   1.8813924250E+01
  1.1020831124E+01   1.1331602198E+01   4.6940878277E-02
  1.5324320614E+01   1.1385859425E+01   3.9489574501E+00
  1.9040500620E+01   1.1837022641E+01   7.2893115439E+00
  2.3308647482E+01   1.1708274769E+01   1.1189506918E+01
  2.7123767612E+01   1.1526071388E+01   1.5029069215E+01
  3.0849773315E+01   1.1888356293E+01   1.9322550987E+01
  3.4386067466E+01   1.1470498386E+01   2.3461312835E+01
  7.7614251865E+00   1.5265551513E+01   3.4345745304E-01
  1.1568835626E+01   1.5090372299E+01   3.5518570315E+00
  1.5324373703E+01   1.5323567463E+01   8.0236009855E+00
  1.9642403103E+01   1.5099786433E+01   1.1183692610E+01
  2.2478193180E+01   1.5529713697E+01   1.5329955195E+01
  2.6684894315E+01   1.5327686256E+01   1.9038364624E+01
  2.9987359734E+01   1.5507990088E+01   2.3286600557E+01
  3.4415718399E+01   1.5572736063E+01   2.6747444534E+01
  3.3972182266E+00   1.9560517202E+01   3.7745322971E+01
  7.7540468215E+00   1.9327286659E+01   3.6727350377E+00
  1.1887237085E+01   1.8752999970E+01   7.5464779596E+00
  1.5571443691E+01   1.9122811435E+01   1.1817810167E+01
  1.9326352525E+01   1.9451045156E+01   1.5323586234E+01
  2.3054666046E+01   1.8943556632E+01   1.8987412628E+01
  2.6713972086E+01   1.9574168253E+01   2.2613521909E+01
  3.0748766507E+01   1.9058251033E+01   2.6868999638E+01
  3.4420106425E+01   1.9222883939E+01   3.0846319576E+01
  4.2806778487E-02   2.2962995717E+01   8.6812843361E-02
  3.6159432225E+00   2.2680771794E+01   4.0774607214E+00
  8.1565458807E+00   2.2452900128E+01   7.7505724212E+00
  1.2054768134E+01   2.2533596090E+01   1.1077222728E+01
  1.5047787894E+01   2.3357662088E+01   1.5226382339E+01
  1.9125162691E+01   2.2835093173E+01   1.8852898406E+01
  2.2715462774E+01   2.2990530935E+01   2.2537992815E+01
  2.6866230930E+01   2.2626223616E+01   2.7121205325E+01
  3.1117119686E+01   2.2847518266E+01   3.0745892610E+01
  3.4212534476E+01   2.2492089358E+01   3.4550003654E+01
  3.8089781524E+01   2.7007813934E+01   3.8256313277E+00
  4.2651916815E+00   2.6830875491E+01   7.6720500536E+00
  7.5713049202E+00   2.6583152096E+01   1.1618723317E+01
  1.1640372528E+01   2.6464623261E+01   1.5642224745E+01
  1.5146686720E+01   2.6917780002E+01   1.9295117235E+01
  1.8843830826E+01   2.6556654546E+01   2.2521714387E+01
  2.2728970476E+01   2.6767241868E+01   2.6683409540E+01
  2.6590131323E+01   2.6705771302E+01   2.9859316124E+01
  3.0313237420E+01   2.6806571750E+01   3.4619278215E+01
  3.1222578774E-01   3.0092966311E+01   7.9135892289E+00
  3.9455814238E+00   3.0737583065E+01   1.1238902275E+01
  7.7582358600E+00   3.0652721178E+01   1.4913645502E+01
  1.1445789057E+01   3.0755462132E+01   1.9004181553E+01
  1.5321713315E+01   3.0697095314E+01   2.2638585405E+01
  1.8874483071E+01   3.0380795688E+01   2.6496830484E+01
  2.2968075519E+01   3.0447723735E+01   3.0700510325E+01
  2.6925222935E+01   3.0388625278E+01   3.4406666388E+01
  3.8016817853E+01   3.5001427526E+01   1.1716225228E+01
  3.8513184701E+00   3.3864103741E+01   1.5365883716E+01
  7.6993175369E+00   3.4466887081E+01   1.9172251122E+01
  1.1684179137E+01   3.4247703731E+01   2.2936625967E+01
  1.5562836405E+01   3.4231834092E+01   2.6999125744E+01
  1.9358770722E+01   3.3917966605E+01   3.1018189623E+01
  2.3382871968E+01   3.4514426664E+01   3.4662573459E+01
  3.0947861657E+01   3.8012007282E+01   1.0709554654E-01
  3.4803439752E+01   6.2003456944E-01   3.7948316898E+00
  2.6568007729E+01   3.7987458400E+00   8.1279571527E-02
  3.0874806032E+01   3.7107082090E+00   4.2707904142E+00
  3.4679410195E+01   3.9347098467E+00   7.8248467740E+00
  2.2986267450E+01   7.5800491190E+00   4.0984203437E-01
  2.7145329225E+01   7.5219985279E+00   3.3527037274E+00
  3.0237221399E+01   7.4757272060E+00   7.7303199468E+00
  3.4646716900E+01   7.6814447053E+00   1.1178508797E+01
  1.9077767749E+01   1.1445415857E+01   3.3494813467E-02
  2.2821518838E+01   1.1321183625E+01   3.7309781924E+00
  2.6590033269E+01   1.1218291524E+01   7.2534152659E+00
  3.0820550935E+01   1.1600651388E+01   1.1367026253E+01
  3.4458376308E+01   1.2211864935E+01   1.5613735759E+01
  1.5535292247E+01   1.5610482876E+01   2.5825027262E-01
  1.9026321016E+01   1.5370283716E+01   3.4751646967E+00
  2.2993305934E+01   1.5174157208E+01   7.3568801239E+00
  2.7002889936E+01   1.5624683219E+01   1.1451932380E+01
  3.0736532839E+01   1.5381342574E+01   1.5338343188E+01
  3.4189670602E+01   1.5283619625E+01   1.9511819683E+01
  1.2116012219E+01   1.9174488873E+01   3.8043799009E+01
  1.5369126575E+01   1.9437490415E+01   3.7236432873E+00
  1.9361931919E+01   1.9414111260E+01   7.9532714293E+00
  2.2801574374E+01   1.9171091575E+01   1.1667351703E+01
  2.7474880275E+01   1.9197437215E+01   1.5367481740E+01
  3.0469011394E+01   1.9676750557E+01   1.9486813565E+01
  3.4552760527E+01   1.8805178032E+01   2.3082820439E+01
  7.4771665690E+00   2.3323886299E+01   4.1858591752E-01
  1.1477830720E+01   2.2627095336E+01   4.0681849381E+00
  1.5140393176E+01   2.2652298327E+01   7.3288324161E+00
  1.8874936692E+01   2.2923466895E+01   1.1103055571E+01
  2.3183985460E+01   2.2828245405E+01   1.4879731879E+01
  2.5963798486E+01   2.2955633182E+01   1.8696463472E+01
  3.0640248490E+01   2.2661895099E+01   2.3678296965E+01
  3.4696468521E+01   2.2991614890E+01   2.6664317518E+01
  4.0144118433E+00   2.6528296450E+01   3.7490216215E-01
  7.7101396441E+00   2.6950878681E+01   4.0945561342E+00
  1.1075377988E+01   2.7078488643E+01   7.5908263949E+00
  1.5244048104E+01   2.6824514790E+01   1.1223818275E+01
  1.8910250580E+01   2.6468071628E+01   1.5138991560E+01
  2.3575879521E+01   2.7306636177E+01   1.8877446660E+01
  2.6615180505E+01   2.6433998770E+01   2.3391066904E+01
  3.0523814643E+01   2.7128310450E+01   2.6907728744E+01
  3.4202676146E+01   2.6791091131E+01   3.0486557696E+01
  8.6363966513E-02   3.0325815786E+01   5.1276393782E-02
  3.6574941451E+00   3.0328601982E+01   3.4424208220E+00
  7.1040424217E+00   3.0697251262E+01   7.1411782359E+00
  1.1435582519E+01   3.0312262271E+01   1.1699759796E+01
  1.5260500009E+01   3.0322587696E+01   1.5423874792E+01
  1.9793131852E+01   3.0620480135E+01   1.8561589161E+01
  2.2725082466E+01   3.0515788419E+01   2.3220959142E+01
  2.6320963177E+01   3.0517365212E+01   2.6620283742E+01
  3.0615132184E+01   3.0898149145E+01   3.0439936476E+01
  3.4612435112E+01   3.0562829105E+01   3.5059470437E+01
  1.9390602059E-01   3.4614213080E+01   3.9547719040E+00
  4.0027264178E+00   3.4497419105E+01   7.7075690456E+00
  7.6572311376E+00   3.4447441690E+01   1.2228150392E+01
  1.1822398618E+01   3.4531858587E+01   1.5551501670E+01
  1.5655096282E+01   3.4038602647E+01   1.9237063319E+01
  1.9430636487E+01   3.4920206658E+01   2.2796512399E+01
  2.2365594518E+01   3.3836975686E+01   2.6817050492E+01
  2.7029459527E+01   3.4702665638E+01   3.0583647221E+01
  3.0595274956E+01   3.4562882643E+01   3.4558597684E+01
  3.5048948597E+01   3.7565941192E+00   3.3016010137E-01
  3.0200834681E+01   8.1770167809E+00   3.8143631990E+01
  3.4247689143E+01   7.5158296641E+00   3.6907765187E+00
  2.6512303471E+01   1.1507027131E+01   3.7934830281E+01
  3.0576437936E+01   1.1163537478E+01   3.6195111574E+00
  3.3944797664E+01   1.1686594829E+01   7.4848917836E+00
  2.3091442969E+01   1.4860846883E+01   3.8180492215E+01
  2.7352076473E+01   1.5173836264E+01   4.0889829187E+00
  3.0705152068E+01   1.5385070915E+01   7.9070532867E+00
  3.4597090841E+01   1.5436421594E+01   1.1497852855E+01
  1.9279073715E+01   1.9456955149E+01   4.1463562971E-01
  2.3414856309E+01   1.8957512695E+01   4.1906140026E+00
  2.6749749263E+01   1.9461411752E+01   8.2731596821E+00
  3.0810143568E+01   1.9018338016E+01   1.1155278347E+01
  3.4555148410E+01   1.9258378658E+01   1.4904474875E+01
  1.5137403970E+01   2.2760887963E+01   3.7898249660E+01
  1.8614924951E+01   2.2828403554E+01   3.9352860566E+00
  2.2629747600E+01   2.3209396869E+01   6.8693233403E+00
  2.6206256239E+01   2.3142585129E+01   1.0926737876E+01
  3.0318196577E+01   2.3093276405E+01   1.5030399781E+01
  3.4339786034E+01   2.2848324399E+01   1.9407589213E+01
  1.0990934856E+01   2.6976885966E+01   2.2459939728E-01
  1.5725274921E+01   2.6666000828E+01   3.4772352581E+00
  1.9024286408E+01   2.6634536105E+01   7.6252813567E+00
  2.3063428652E+01   2.6689303384E+01   1.1527556406E+01
  2.6596963449E+01   2.6488928944E+01   1.4905362605E+01
  3.0580407799E+01   2.6639036810E+01   1.9547060699E+01
  3.4229022077E+01   2.6513602429E+01   2.3423849416E+01
  7.4818725157E+00   3.0598974426E+01   4.4455763620E-01
  1.1662577601E+01   3.0730177817E+01   4.0147612019E+00
  1.5078305099E+01   3.1096360237E+01   7.7540787166E+00
  1.9732408866E+01   3.0079376762E+01   1.1566312133E+01
  2.2714202732E+01   3.0692289394E+01   1.5228827196E+01
  2.7109522462E+01   3.0499757206E+01   1.9090419130E+01
  3.0477619173E+01   3.0658689108E+01   2.3470528625E+01
  3.4351029236E+01   3.0252912998E+01   2.6624147049E+01
  3.4351375221E+00   3.4034834980E+01   2.7596569044E-01
  7.8540127942E+00   3.4256417913E+01   3.9260858922E+00
  1.0900860022E+01   3.4762841985E+01   8.0988414396E+00
  1.6124810849E+01   3.4137732060E+01   1.1405636186E+01
  1.9352815176E+01   3.4727488201E+01   1.5482457020E+01
  2.3152106001E+01   3.3912659239E+01   1.9275993659E+01
  2.7049085506E+01   3.3984673113E+01   2.2639924859E+01
  2.9984345089E+01   3.4311966868E+01   2.6893949995E+01
  3.4503038992E+01   3.4294794455E+01   3.0501304288E+01
  3.3993871016E+01   1.1457613820E+01   3.8074555508E+01
  3.0719317149E+01   1.5149243433E+01   2.1200913956E-01
  3.4600454623E+01   1.4556260121E+01   3.7079959666E+00
  2.7161889064E+01   1.8613662203E+01   3.8212982029E+01
  3.0313540662E+01   1.8732387530E+01   3.9732781369E+00
  3.4499232940E+01   1.8962374342E+01   7.4476736170E+00
  2.3288612448E+01   2.2962554117E+01   3.6392463986E-01
  2.6771557467E+01   2.3007620461E+01   3.3288434193E+00
  3.0179070924E+01   2.2808499211E+01   7.8773980331E+00
  3.3910912356E+01   2.2701873232E+01   1.0826272838E+01
  1.9014881594E+01   2.7199488917E+01   3.8241848168E+01
  2.3257874306E+01   2.7072924720E+01   4.2139141730E+00
  2.6342529182E+01   2.7135601770E+01   8.1844676600E+00
  3.0409685729E+01   2.7196195027E+01   1.1178730244E+01
  3.4580182064E+01   2.5983224005E+01   1.5493354487E+01
  1.5084211985E+01   3.0549625958E+01   1.8960125699E-01
  1.9441462948E+01   3.0550968386E+01   3.7119342839E+00
  2.2583161411E+01   3.0684543676E+01   7.1828063173E+00
  2.6805719538E+01   3.0874149938E+01   1.1378803805E+01
  3.0338019134E+01   3.0427504244E+01   1.5248961184E+01
  3.4440282683E+01   3.0505489303E+01   1.8875980603E+01
  1.1223175642E+01   3.4721233268E+01   2.1749990760E-02
  1.5126553219E+01   3.4442151699E+01   3.9503473914E+00
  1.9073421684E+01   3.4518207003E+01   7.3962859847E+00
  2.3333738594E+01   3.4143821884E+01   1.1540039103E+01
  2.6361950365E+01   3.4785324570E+01   1.5403127284E+01
  3.0700351416E+01   3.4385005223E+01   1.9047715313E+01
  3.4709728940E+01   3.4460354876E+01   2.2481027051E+01
  3.4262011997E+01   1.9128997711E+01   3.8199827121E+01
  3.0798998472E+01   2.3133792190E+01   3.7985244955E+01
  3.4270963169E+01   2.2859834548E+01   3.6420358146E+00
  2.6797281260E+01   2.6317141527E+01   3.7669463626E+01
  3.0846102244E+01   2.7341160222E+01   4.3799335111E+00
  3.4406255415E+01   2.6501500497E+01   7.6548365426E+00
  2.3032852933E+01   3.0413983907E+01   3.9107473902E-01
  2.7212937893E+01   3.0542538976E+01   3.8251511701E+00
  3.0457702803E+01   3.0568921462E+01   7.8205448079E+00
  3.4063300117E+01   3.0142562154E+01   1.2046864837E+01
  1.9125432549E+01   3.4459240708E+01   3.7935423729E+01
  2.2637520876E+01   3.4675941907E+01   4.1902481703E+00
  2.6827518734E+01   3.4962622119E+01   7.7482911959E+00
  3.1163111779E+01   3.4507666242E+01   1.1343711139E+01
  3.4216589376E+01   3.4338342301E+01   1.5170031309E+01
  3.4430467130E+01   2.6489598560E+01   3.8008081845E+01
  3.0438708576E+01   3.0657878817E+01   6.9055996403E-01
  3.4790676328E+01   3.1086248608E+01   3.7621454969E+00
  2.7329906417E+01   3.4063771345E+01   5.3497205760E-01
  3.0923084148E+01   3.4813427823E+01   4.2431048046E+00
  3.4729718332E+01   3.4594475754E+01   7.5691243423E+00
  3.4580994100E+01   3.4628778825E+01   4.9771142928E-01
:V(Bohr/atu):
 -1.0410585207E-04   5.3734082623E-04   2.9655006722E-04
  9.7387118425E-05  -7.4342127943E-05   1.0534198435E-04
  5.8215636516E-04  -2.1970253128E-04  -4.8830437765E-04
  1.7216359812E-04   4.0141933957E-04  -4.7266496059E-04
  2.2709759561E-04   2.9505812588E-05  -1.5930156159E-04
  6.6556199240E-05   3.6799565335E-04   6.9114757697E-05
 -2.8021130178E-04  -4.1530252958E-04   1.9416611568E-04
 -2.6175596432E-05   4.0284357603E-04   2.1974323707E-04
 -4.7924879069E-05  -3.4873383555E-04   2.4987365934E-04
 -4.5749834045E-04   2.2760912432E-05  -2.4423892010E-04
  6.4327469293E-05  -1.4710372904E-04  -2.0777196713E-04
 -2.6072287665E-04  -1.8355673265E-04   4.4888357694E-04
  4.3639679700E-04   1.3148241757E-04   1.3962751151E-04
 -1.3207865166E-04   2.9684063787E-04  -4.7022778055E-04
 -6.1213689279E-05   1.4125078797E-04   6.1958260077E-04
 -2.2745232256E-04  -6.8874743066E-04   2.3321914403E-04
 -8.1037321014E-05   1.7245530414E-04   3.3030896450E-04
 -2.9476861201E-04   2.5767152053E-04  -1.7516587208E-04
  3.3000089381E-04  -3.2125099101E-04   2.3580378331E-04
  1.2032834634E-04  -1.1508168407E-04  -1.8913447921E-04
 -3.7176431608E-04  -7.6137190438E-04  -5.5305205733E-05
 -1.6646346002E-04  -4.1186719079E-05  -1.8388662993E-04
  1.7384078028E-04  -2.1688656516E-04  -6.2094943048E-05
 -2.4578215510E-04  -4.0900732489E-04  -4.1096233210E-04
 -3.1004421468E-04   1.0643660587E-04   1.8231334385E-04