
     Program PWSCF v.7.0 starts on 23Feb2023 at 23:56:46 

     This program is part of the open-source Quantum ESPRESSO suite
     for quantum simulation of materials; please cite
         "P. Giannozzi et al., J. Phys.:Condens. Matter 21 395502 (2009);
         "P. Giannozzi et al., J. Phys.:Condens. Matter 29 465901 (2017);
         "P. Giannozzi et al., J. Chem. Phys. 152 154105 (2020);
          URL http://www.quantum-espresso.org", 
     in publications or presentations arising from this work. More details at
     http://www.quantum-espresso.org/quote

     Parallel version (MPI), running on   600 processors

     MPI processes distributed on    50 nodes
     R & G space division:  proc/nbgrp/npool/nimage =     600
     353575 MiB available memory on the printing compute node when the environment starts

     Reading input from pw_soc_cg.inp
Warning: card &CELL ignored
Warning: card / ignored

     Current dimensions of program PWSCF are:
     Max number of different atomic species (ntypx) = 10
     Max number of k-points (npk) =  40000
     Max angular momentum in pseudopotentials (lmaxx) =  4
     Message from routine cell_base_init:
     DEPRECATED: use true lattice parameter, not A to a.u. conversion factor

     IMPORTANT: XC functional enforced from input :
     Exchange-correlation= PBE
                           (   1   4   3   4   0   0   0)
     Any further DFT definition will be discarded
     Please, verify this is what you really want

     Found identity + (  0.0000  0.0000 -0.5000) symmetry
     This is a supercell, fractional translations are disabled

     Subspace diagonalization in iterative solution of the eigenvalue problem:
     one sub-group per band group will be used
     scalapack distributed-memory algorithm (size of sub-group: 24* 24 procs)


     Parallelization info
     --------------------
     sticks:   dense  smooth     PW     G-vecs:    dense   smooth      PW
     Min          48      48     12                 2858     2858     374
     Max          49      49     13                 2869     2869     381
     Sum       29353   29353   7589              1718551  1718551  226033

     Using Pencil Decomposition



     bravais-lattice index     =            0
     lattice parameter (alat)  =       1.0000  a.u.
     unit-cell volume          =   17775.3313 (a.u.)^3
     number of atoms/cell      =           72
     number of atomic types    =            1
     number of electrons       =      1368.00
     number of Kohn-Sham states=         1650
     kinetic-energy cutoff     =      80.0000  Ry
     charge density cutoff     =     320.0000  Ry
     scf convergence threshold =      1.0E-02
     mixing beta               =       0.2000
     number of iterations used =            8  TF        mixing
     Exchange-correlation= PBE
                           (   1   4   3   4   0   0   0)
     Non magnetic calculation with spin-orbit


     celldm(1)=   1.000000  celldm(2)=   0.000000  celldm(3)=   0.000000
     celldm(4)=   0.000000  celldm(5)=   0.000000  celldm(6)=   0.000000

     crystal axes: (cart. coord. in units of alat)
               a(1) = (  33.951920   0.000000   0.000000 )  
               a(2) = (   0.000000  33.951920   0.000000 )  
               a(3) = (   0.000000   0.000000  15.420165 )  

     reciprocal axes: (cart. coord. in units 2 pi/alat)
               b(1) = (  0.029453  0.000000  0.000000 )  
               b(2) = (  0.000000  0.029453  0.000000 )  
               b(3) = (  0.000000  0.000000  0.064850 )  


     PseudoPot. # 1 for Au read from file:
     .././Au_FR.upf
     MD5 check sum: 0f4c7ff4841ea3d6668dbbe9cc620d4d
     Pseudo is Norm-conserving + core correction, Zval = 19.0
     Generated using ONCVPSP code by D. R. Hamann
     Using radial grid of 1356 points, 12 beta functions with: 
                l(1) =   0
                l(2) =   0
                l(3) =   1
                l(4) =   1
                l(5) =   1
                l(6) =   1
                l(7) =   2
                l(8) =   2
                l(9) =   2
               l(10) =   2
               l(11) =   3
               l(12) =   3

     atomic species   valence    mass     pseudopotential
        Au            19.00   197.00000     Au( 1.00)

     No symmetry found


                                    s                        frac. trans.

      isym =  1     identity                                     

 cryst.   s( 1) = (     1          0          0      )
                  (     0          1          0      )
                  (     0          0          1      )

 cart.    s( 1) = (  1.0000000  0.0000000  0.0000000 )
                  (  0.0000000  1.0000000  0.0000000 )
                  (  0.0000000  0.0000000  1.0000000 )


   Cartesian axes

     site n.     atom                  positions (alat units)
         1           Au  tau(   1) = (   7.3383567   7.3383567   1.9275206  )
         2           Au  tau(   2) = (   7.3383567  11.1933981   5.7825619  )
         3           Au  tau(   3) = (  11.1933981   7.3383567   5.7825619  )
         4           Au  tau(   4) = (  11.1933981  11.1933981   1.9275206  )
         5           Au  tau(   5) = (   7.3383567  15.0484394   1.9275206  )
         6           Au  tau(   6) = (   7.3383567  18.9034806   5.7825619  )
         7           Au  tau(   7) = (  11.1933981  15.0484394   5.7825619  )
         8           Au  tau(   8) = (  11.1933981  18.9034806   1.9275206  )
         9           Au  tau(   9) = (   7.3383567  22.7585219   1.9275206  )
        10           Au  tau(  10) = (   7.3383567  26.6135632   5.7825619  )
        11           Au  tau(  11) = (  11.1933981  22.7585219   5.7825619  )
        12           Au  tau(  12) = (  11.1933981  26.6135632   1.9275206  )
        13           Au  tau(  13) = (  15.0484394   7.3383567   1.9275206  )
        14           Au  tau(  14) = (  15.0484394  11.1933981   5.7825619  )
        15           Au  tau(  15) = (  18.9034806   7.3383567   5.7825619  )
        16           Au  tau(  16) = (  18.9034806  11.1933981   1.9275206  )
        17           Au  tau(  17) = (  15.0484394  15.0484394   1.9275206  )
        18           Au  tau(  18) = (  15.0484394  18.9034806   5.7825619  )
        19           Au  tau(  19) = (  18.9034806  15.0484394   5.7825619  )
        20           Au  tau(  20) = (  18.9034806  18.9034806   1.9275206  )
        21           Au  tau(  21) = (  15.0484394  22.7585219   1.9275206  )
        22           Au  tau(  22) = (  15.0484394  26.6135632   5.7825619  )
        23           Au  tau(  23) = (  18.9034806  22.7585219   5.7825619  )
        24           Au  tau(  24) = (  18.9034806  26.6135632   1.9275206  )
        25           Au  tau(  25) = (  22.7585219   7.3383567   1.9275206  )
        26           Au  tau(  26) = (  22.7585219  11.1933981   5.7825619  )
        27           Au  tau(  27) = (  26.6135632   7.3383567   5.7825619  )
        28           Au  tau(  28) = (  26.6135632  11.1933981   1.9275206  )
        29           Au  tau(  29) = (  22.7585219  15.0484394   1.9275206  )
        30           Au  tau(  30) = (  22.7585219  18.9034806   5.7825619  )
        31           Au  tau(  31) = (  26.6135632  15.0484394   5.7825619  )
        32           Au  tau(  32) = (  26.6135632  18.9034806   1.9275206  )
        33           Au  tau(  33) = (  22.7585219  22.7585219   1.9275206  )
        34           Au  tau(  34) = (  22.7585219  26.6135632   5.7825619  )
        35           Au  tau(  35) = (  26.6135632  22.7585219   5.7825619  )
        36           Au  tau(  36) = (  26.6135632  26.6135632   1.9275206  )
        37           Au  tau(  37) = (   7.3383567   7.3383567   9.6376032  )
        38           Au  tau(  38) = (   7.3383567  11.1933981  13.4926445  )
        39           Au  tau(  39) = (  11.1933981   7.3383567  13.4926445  )
        40           Au  tau(  40) = (  11.1933981  11.1933981   9.6376032  )
        41           Au  tau(  41) = (   7.3383567  15.0484394   9.6376032  )
        42           Au  tau(  42) = (   7.3383567  18.9034806  13.4926445  )
        43           Au  tau(  43) = (  11.1933981  15.0484394  13.4926445  )
        44           Au  tau(  44) = (  11.1933981  18.9034806   9.6376032  )
        45           Au  tau(  45) = (   7.3383567  22.7585219   9.6376032  )
        46           Au  tau(  46) = (   7.3383567  26.6135632  13.4926445  )
        47           Au  tau(  47) = (  11.1933981  22.7585219  13.4926445  )
        48           Au  tau(  48) = (  11.1933981  26.6135632   9.6376032  )
        49           Au  tau(  49) = (  15.0484394   7.3383567   9.6376032  )
        50           Au  tau(  50) = (  15.0484394  11.1933981  13.4926445  )
        51           Au  tau(  51) = (  18.9034806   7.3383567  13.4926445  )
        52           Au  tau(  52) = (  18.9034806  11.1933981   9.6376032  )
        53           Au  tau(  53) = (  15.0484394  15.0484394   9.6376032  )
        54           Au  tau(  54) = (  15.0484394  18.9034806  13.4926445  )
        55           Au  tau(  55) = (  18.9034806  15.0484394  13.4926445  )
        56           Au  tau(  56) = (  18.9034806  18.9034806   9.6376032  )
        57           Au  tau(  57) = (  15.0484394  22.7585219   9.6376032  )
        58           Au  tau(  58) = (  15.0484394  26.6135632  13.4926445  )
        59           Au  tau(  59) = (  18.9034806  22.7585219  13.4926445  )
        60           Au  tau(  60) = (  18.9034806  26.6135632   9.6376032  )
        61           Au  tau(  61) = (  22.7585219   7.3383567   9.6376032  )
        62           Au  tau(  62) = (  22.7585219  11.1933981  13.4926445  )
        63           Au  tau(  63) = (  26.6135632   7.3383567  13.4926445  )
        64           Au  tau(  64) = (  26.6135632  11.1933981   9.6376032  )
        65           Au  tau(  65) = (  22.7585219  15.0484394   9.6376032  )
        66           Au  tau(  66) = (  22.7585219  18.9034806  13.4926445  )
        67           Au  tau(  67) = (  26.6135632  15.0484394  13.4926445  )
        68           Au  tau(  68) = (  26.6135632  18.9034806   9.6376032  )
        69           Au  tau(  69) = (  22.7585219  22.7585219   9.6376032  )
        70           Au  tau(  70) = (  22.7585219  26.6135632  13.4926445  )
        71           Au  tau(  71) = (  26.6135632  22.7585219  13.4926445  )
        72           Au  tau(  72) = (  26.6135632  26.6135632   9.6376032  )

   Crystallographic axes

     site n.     atom                  positions (cryst. coord.)
         1           Au  tau(   1) = (  0.2161397  0.2161397  0.1250000  )
         2           Au  tau(   2) = (  0.2161397  0.3296838  0.3750000  )
         3           Au  tau(   3) = (  0.3296838  0.2161397  0.3750000  )
         4           Au  tau(   4) = (  0.3296838  0.3296838  0.1250000  )
         5           Au  tau(   5) = (  0.2161397  0.4432279  0.1250000  )
         6           Au  tau(   6) = (  0.2161397  0.5567721  0.3750000  )
         7           Au  tau(   7) = (  0.3296838  0.4432279  0.3750000  )
         8           Au  tau(   8) = (  0.3296838  0.5567721  0.1250000  )
         9           Au  tau(   9) = (  0.2161397  0.6703162  0.1250000  )
        10           Au  tau(  10) = (  0.2161397  0.7838603  0.3750000  )
        11           Au  tau(  11) = (  0.3296838  0.6703162  0.3750000  )
        12           Au  tau(  12) = (  0.3296838  0.7838603  0.1250000  )
        13           Au  tau(  13) = (  0.4432279  0.2161397  0.1250000  )
        14           Au  tau(  14) = (  0.4432279  0.3296838  0.3750000  )
        15           Au  tau(  15) = (  0.5567721  0.2161397  0.3750000  )
        16           Au  tau(  16) = (  0.5567721  0.3296838  0.1250000  )
        17           Au  tau(  17) = (  0.4432279  0.4432279  0.1250000  )
        18           Au  tau(  18) = (  0.4432279  0.5567721  0.3750000  )
        19           Au  tau(  19) = (  0.5567721  0.4432279  0.3750000  )
        20           Au  tau(  20) = (  0.5567721  0.5567721  0.1250000  )
        21           Au  tau(  21) = (  0.4432279  0.6703162  0.1250000  )
        22           Au  tau(  22) = (  0.4432279  0.7838603  0.3750000  )
        23           Au  tau(  23) = (  0.5567721  0.6703162  0.3750000  )
        24           Au  tau(  24) = (  0.5567721  0.7838603  0.1250000  )
        25           Au  tau(  25) = (  0.6703162  0.2161397  0.1250000  )
        26           Au  tau(  26) = (  0.6703162  0.3296838  0.3750000  )
        27           Au  tau(  27) = (  0.7838603  0.2161397  0.3750000  )
        28           Au  tau(  28) = (  0.7838603  0.3296838  0.1250000  )
        29           Au  tau(  29) = (  0.6703162  0.4432279  0.1250000  )
        30           Au  tau(  30) = (  0.6703162  0.5567721  0.3750000  )
        31           Au  tau(  31) = (  0.7838603  0.4432279  0.3750000  )
        32           Au  tau(  32) = (  0.7838603  0.5567721  0.1250000  )
        33           Au  tau(  33) = (  0.6703162  0.6703162  0.1250000  )
        34           Au  tau(  34) = (  0.6703162  0.7838603  0.3750000  )
        35           Au  tau(  35) = (  0.7838603  0.6703162  0.3750000  )
        36           Au  tau(  36) = (  0.7838603  0.7838603  0.1250000  )
        37           Au  tau(  37) = (  0.2161397  0.2161397  0.6250000  )
        38           Au  tau(  38) = (  0.2161397  0.3296838  0.8750000  )
        39           Au  tau(  39) = (  0.3296838  0.2161397  0.8750000  )
        40           Au  tau(  40) = (  0.3296838  0.3296838  0.6250000  )
        41           Au  tau(  41) = (  0.2161397  0.4432279  0.6250000  )
        42           Au  tau(  42) = (  0.2161397  0.5567721  0.8750000  )
        43           Au  tau(  43) = (  0.3296838  0.4432279  0.8750000  )
        44           Au  tau(  44) = (  0.3296838  0.5567721  0.6250000  )
        45           Au  tau(  45) = (  0.2161397  0.6703162  0.6250000  )
        46           Au  tau(  46) = (  0.2161397  0.7838603  0.8750000  )
        47           Au  tau(  47) = (  0.3296838  0.6703162  0.8750000  )
        48           Au  tau(  48) = (  0.3296838  0.7838603  0.6250000  )
        49           Au  tau(  49) = (  0.4432279  0.2161397  0.6250000  )
        50           Au  tau(  50) = (  0.4432279  0.3296838  0.8750000  )
        51           Au  tau(  51) = (  0.5567721  0.2161397  0.8750000  )
        52           Au  tau(  52) = (  0.5567721  0.3296838  0.6250000  )
        53           Au  tau(  53) = (  0.4432279  0.4432279  0.6250000  )
        54           Au  tau(  54) = (  0.4432279  0.5567721  0.8750000  )
        55           Au  tau(  55) = (  0.5567721  0.4432279  0.8750000  )
        56           Au  tau(  56) = (  0.5567721  0.5567721  0.6250000  )
        57           Au  tau(  57) = (  0.4432279  0.6703162  0.6250000  )
        58           Au  tau(  58) = (  0.4432279  0.7838603  0.8750000  )
        59           Au  tau(  59) = (  0.5567721  0.6703162  0.8750000  )
        60           Au  tau(  60) = (  0.5567721  0.7838603  0.6250000  )
        61           Au  tau(  61) = (  0.6703162  0.2161397  0.6250000  )
        62           Au  tau(  62) = (  0.6703162  0.3296838  0.8750000  )
        63           Au  tau(  63) = (  0.7838603  0.2161397  0.8750000  )
        64           Au  tau(  64) = (  0.7838603  0.3296838  0.6250000  )
        65           Au  tau(  65) = (  0.6703162  0.4432279  0.6250000  )
        66           Au  tau(  66) = (  0.6703162  0.5567721  0.8750000  )
        67           Au  tau(  67) = (  0.7838603  0.4432279  0.8750000  )
        68           Au  tau(  68) = (  0.7838603  0.5567721  0.6250000  )
        69           Au  tau(  69) = (  0.6703162  0.6703162  0.6250000  )
        70           Au  tau(  70) = (  0.6703162  0.7838603  0.8750000  )
        71           Au  tau(  71) = (  0.7838603  0.6703162  0.8750000  )
        72           Au  tau(  72) = (  0.7838603  0.7838603  0.6250000  )

     number of k points=     2  Fermi-Dirac smearing, width (Ry)=  0.0020
                       cart. coord. in units 2pi/alat
        k(    1) = (   0.0000000   0.0000000   0.0081063), wk =   0.5000000
        k(    2) = (   0.0000000   0.0000000   0.0243188), wk =   0.5000000

                       cryst. coord.
        k(    1) = (   0.0000000   0.0000000   0.1250000), wk =   0.5000000
        k(    2) = (   0.0000000   0.0000000   0.3750000), wk =   0.5000000

     Dense  grid:  1718551 G-vectors     FFT dimensions: ( 200, 200,  90)

     Dynamical RAM for                 wfc:      17.98 MB

     Dynamical RAM for     wfc (w. buffer):      53.93 MB

     Dynamical RAM for           str. fact:       0.04 MB

     Dynamical RAM for           local pot:       0.00 MB

     Dynamical RAM for          nlocal pot:      18.83 MB

     Dynamical RAM for                qrad:       7.46 MB

     Dynamical RAM for          rho,v,vnew:       4.19 MB

     Dynamical RAM for               rhoin:       1.40 MB

     Dynamical RAM for            rho*nmix:       2.80 MB

     Dynamical RAM for           G-vectors:       0.19 MB

     Dynamical RAM for          h,s,v(r/c):       0.21 MB

     Dynamical RAM for          <psi|beta>:     174.02 MB

     Dynamical RAM for      wfcinit/wfcrot:      89.29 MB

     Estimated static dynamical RAM per process >      88.56 MB

     Estimated max dynamical RAM per process >     265.59 MB

     Estimated total dynamical RAM >     155.62 GB

     Initial potential from superposition of free atoms

     starting charge    1367.9917, renormalised to    1368.0000

     negative rho (up, down):  1.831E-06 0.000E+00
     Starting wfcs are random

     total cpu time spent up to now is       37.7 secs

     per-process dynamical memory:   645.9 Mb

     Self-consistent Calculation

     iteration #  1     ecut=    80.00 Ry     beta= 0.20
     CG style diagonalization

---- Real-time Memory Report at c_bands before calling an iterative solver
           677 MiB given to the printing process from OS
           630 MiB allocation reported by mallinfo(arena+hblkhd)
        347528 MiB available memory on the node where the printing process lives
------------------
     ethr =  1.00E-02,  avg # of iterations = 16.8

     Threshold (ethr) on eigenvalues was too large:
     Diagonalizing with lowered threshold

     CG style diagonalization

---- Real-time Memory Report at c_bands before calling an iterative solver
           698 MiB given to the printing process from OS
           649 MiB allocation reported by mallinfo(arena+hblkhd)
        346352 MiB available memory on the node where the printing process lives
------------------
     ethr =  4.27E-04,  avg # of iterations =  2.1

     negative rho (up, down):  1.454E-06 0.000E+00

     total cpu time spent up to now is     1869.4 secs

     total energy              =  -21268.05511417 Ry
     estimated scf accuracy    <       5.48904368 Ry

     iteration #  2     ecut=    80.00 Ry     beta= 0.20
     CG style diagonalization

---- Real-time Memory Report at c_bands before calling an iterative solver
           699 MiB given to the printing process from OS
           649 MiB allocation reported by mallinfo(arena+hblkhd)
        346240 MiB available memory on the node where the printing process lives
------------------
     ethr =  4.01E-04,  avg # of iterations =  3.0

     negative rho (up, down):  1.185E-03 0.000E+00

     total cpu time spent up to now is     2104.8 secs

     total energy              =  -21266.98902667 Ry
     estimated scf accuracy    <       2.98611431 Ry

     iteration #  3     ecut=    80.00 Ry     beta= 0.20
     CG style diagonalization

---- Real-time Memory Report at c_bands before calling an iterative solver
           699 MiB given to the printing process from OS
           649 MiB allocation reported by mallinfo(arena+hblkhd)
        346116 MiB available memory on the node where the printing process lives
------------------
     ethr =  2.18E-04,  avg # of iterations =  3.5

     negative rho (up, down):  2.107E-03 0.000E+00

     total cpu time spent up to now is     2390.0 secs

     total energy              =  -21267.65320208 Ry
     estimated scf accuracy    <       0.11266054 Ry

     iteration #  4     ecut=    80.00 Ry     beta= 0.20
     CG style diagonalization

---- Real-time Memory Report at c_bands before calling an iterative solver
           699 MiB given to the printing process from OS
           649 MiB allocation reported by mallinfo(arena+hblkhd)
        345964 MiB available memory on the node where the printing process lives
------------------
     c_bands:  3 eigenvalues not converged
     c_bands:  2 eigenvalues not converged
     ethr =  8.24E-06,  avg # of iterations =  7.2

     negative rho (up, down):  5.790E-03 0.000E+00

     total cpu time spent up to now is     2963.2 secs

     total energy              =  -21267.65399831 Ry
     estimated scf accuracy    <       0.10116763 Ry

     iteration #  5     ecut=    80.00 Ry     beta= 0.20
     CG style diagonalization

---- Real-time Memory Report at c_bands before calling an iterative solver
           700 MiB given to the printing process from OS
           649 MiB allocation reported by mallinfo(arena+hblkhd)
        345674 MiB available memory on the node where the printing process lives
------------------
     ethr =  7.40E-06,  avg # of iterations =  3.5

     negative rho (up, down):  1.381E-02 0.000E+00

     total cpu time spent up to now is     3250.8 secs

     total energy              =  -21267.66357810 Ry
     estimated scf accuracy    <       0.07209824 Ry

     iteration #  6     ecut=    80.00 Ry     beta= 0.20
     CG style diagonalization

---- Real-time Memory Report at c_bands before calling an iterative solver
           700 MiB given to the printing process from OS
           649 MiB allocation reported by mallinfo(arena+hblkhd)
        345538 MiB available memory on the node where the printing process lives
------------------
     ethr =  5.27E-06,  avg # of iterations =  3.0

     negative rho (up, down):  1.633E-02 0.000E+00

     total cpu time spent up to now is     3486.1 secs

     total energy              =  -21267.66600764 Ry
     estimated scf accuracy    <       0.02061526 Ry

     iteration #  7     ecut=    80.00 Ry     beta= 0.20
     CG style diagonalization

---- Real-time Memory Report at c_bands before calling an iterative solver
           700 MiB given to the printing process from OS
           649 MiB allocation reported by mallinfo(arena+hblkhd)
        345419 MiB available memory on the node where the printing process lives
------------------
     ethr =  1.51E-06,  avg # of iterations =  3.0

     negative rho (up, down):  2.359E-02 0.000E+00

     total cpu time spent up to now is     3725.1 secs

     total energy              =  -21267.66673436 Ry
     estimated scf accuracy    <       0.01337579 Ry

     iteration #  8     ecut=    80.00 Ry     beta= 0.20
     CG style diagonalization

---- Real-time Memory Report at c_bands before calling an iterative solver
           701 MiB given to the printing process from OS
           649 MiB allocation reported by mallinfo(arena+hblkhd)
        345297 MiB available memory on the node where the printing process lives
------------------
     ethr =  9.78E-07,  avg # of iterations =  3.1

     total cpu time spent up to now is     3968.2 secs

     End of self-consistent calculation

          k = 0.0000 0.0000 0.0081 (214720 PWs)   bands (ev):

   -98.4023 -98.4023 -98.3989 -98.3989 -98.3972 -98.3972 -98.3962 -98.3962
   -98.3961 -98.3961 -98.3961 -98.3961 -98.3959 -98.3959 -98.3940 -98.3940
   -98.3373 -98.3373 -98.3367 -98.3367 -98.3366 -98.3366 -98.3359 -98.3359
   -98.3356 -98.3356 -98.3355 -98.3355 -98.3355 -98.3355 -98.3351 -98.3351
   -98.3339 -98.3339 -98.3336 -98.3336 -98.3334 -98.3334 -98.3333 -98.3333
   -98.3330 -98.3330 -98.3323 -98.3323 -98.3322 -98.3322 -98.3314 -98.3314
   -98.2510 -98.2510 -98.2510 -98.2510 -98.2509 -98.2509 -98.2508 -98.2508
   -98.2507 -98.2507 -98.2507 -98.2507 -98.2506 -98.2506 -98.2504 -98.2504
   -97.8350 -97.8350 -97.8350 -97.8350 -97.8348 -97.8348 -97.8348 -97.8348
   -97.8333 -97.8333 -97.8333 -97.8333 -97.8331 -97.8331 -97.8331 -97.8331
   -97.8325 -97.8325 -97.8325 -97.8325 -97.8323 -97.8323 -97.8322 -97.8322
   -97.8310 -97.8310 -97.8310 -97.8310 -97.8308 -97.8308 -97.8308 -97.8308
   -97.8025 -97.8025 -97.8024 -97.8024 -97.8023 -97.8023 -97.8023 -97.8023
   -97.8022 -97.8022 -97.8020 -97.8020 -97.8019 -97.8019 -97.8019 -97.8019
   -97.8005 -97.8005 -97.8004 -97.8004 -97.8003 -97.8003 -97.8002 -97.8002
   -97.8001 -97.8001 -97.7999 -97.7999 -97.7999 -97.7999 -97.7998 -97.7998
   -97.3703 -97.3703 -97.3701 -97.3701 -97.3701 -97.3701 -97.3700 -97.3700
   -97.3699 -97.3699 -97.3699 -97.3699 -97.3698 -97.3698 -97.3697 -97.3697
   -62.0918 -62.0918 -62.0862 -62.0862 -62.0860 -62.0860 -62.0851 -62.0851
   -62.0849 -62.0849 -62.0802 -62.0802 -62.0752 -62.0752 -62.0666 -62.0666
   -62.0297 -62.0297 -62.0273 -62.0273 -62.0272 -62.0272 -62.0240 -62.0240
   -62.0233 -62.0233 -62.0226 -62.0226 -62.0225 -62.0225 -62.0212 -62.0212
   -62.0166 -62.0166 -62.0155 -62.0155 -62.0150 -62.0150 -62.0149 -62.0149
   -62.0130 -62.0130 -62.0103 -62.0103 -62.0102 -62.0102 -62.0057 -62.0057
   -61.9371 -61.9371 -61.9369 -61.9369 -61.9367 -61.9367 -61.9366 -61.9366
   -61.9359 -61.9359 -61.9357 -61.9357 -61.9355 -61.9355 -61.9353 -61.9353
   -61.5232 -61.5231 -61.5231 -61.5231 -61.5229 -61.5229 -61.5228 -61.5228
   -61.5162 -61.5161 -61.5160 -61.5160 -61.5159 -61.5159 -61.5158 -61.5158
   -61.5132 -61.5132 -61.5131 -61.5131 -61.5130 -61.5130 -61.5129 -61.5129
   -61.5094 -61.5094 -61.5092 -61.5092 -61.5090 -61.5090 -61.5088 -61.5088
   -61.4878 -61.4877 -61.4877 -61.4877 -61.4874 -61.4874 -61.4873 -61.4873
   -61.4861 -61.4861 -61.4857 -61.4857 -61.4854 -61.4854 -61.4850 -61.4850
   -61.4804 -61.4804 -61.4803 -61.4803 -61.4800 -61.4800 -61.4799 -61.4799
   -61.4789 -61.4789 -61.4787 -61.4787 -61.4783 -61.4783 -61.4781 -61.4781
   -61.0568 -61.0568 -61.0565 -61.0565 -61.0565 -61.0565 -61.0564 -61.0564
   -61.0564 -61.0564 -61.0562 -61.0562 -61.0561 -61.0561 -61.0561 -61.0561
   -45.6424 -45.6424 -45.6333 -45.6332 -45.6302 -45.6302 -45.6286 -45.6286
   -45.6285 -45.6285 -45.6255 -45.6255 -45.6199 -45.6198 -45.6079 -45.6079
   -45.5972 -45.5971 -45.5968 -45.5968 -45.5854 -45.5854 -45.5829 -45.5828
   -45.5787 -45.5787 -45.5711 -45.5711 -45.5707 -45.5707 -45.5592 -45.5592
   -45.5572 -45.5572 -45.5530 -45.5530 -45.5495 -45.5494 -45.5483 -45.5483
   -45.5444 -45.5444 -45.5428 -45.5428 -45.5402 -45.5402 -45.5384 -45.5384
   -45.5255 -45.5254 -45.5218 -45.5218 -45.5192 -45.5192 -45.5147 -45.5147
   -45.5143 -45.5143 -45.5133 -45.5133 -45.5121 -45.5120 -45.5117 -45.5117
   -45.5032 -45.5032 -45.5024 -45.5024 -45.4969 -45.4969 -45.4936 -45.4936
   -45.4882 -45.4882 -45.4870 -45.4870 -45.4847 -45.4847 -45.4834 -45.4834
   -45.4795 -45.4795 -45.4772 -45.4772 -45.4753 -45.4753 -45.4688 -45.4688
   -45.4687 -45.4687 -45.4649 -45.4648 -45.4645 -45.4644 -45.4618 -45.4617
   -45.4271 -45.4271 -45.4269 -45.4268 -45.4255 -45.4254 -45.4247 -45.4247
   -45.4237 -45.4236 -45.4210 -45.4209 -45.4205 -45.4204 -45.4199 -45.4198
   -45.4172 -45.4171 -45.4144 -45.4144 -45.4128 -45.4128 -45.4125 -45.4125
   -45.4124 -45.4124 -45.4077 -45.4077 -45.4073 -45.4072 -45.4020 -45.4020
   -45.0755 -45.0755 -45.0745 -45.0745 -45.0726 -45.0726 -45.0711 -45.0711
   -45.0460 -45.0460 -45.0452 -45.0452 -45.0446 -45.0446 -45.0432 -45.0432
   -45.0412 -45.0412 -45.0406 -45.0405 -45.0392 -45.0392 -45.0350 -45.0350
   -45.0347 -45.0347 -45.0320 -45.0320 -45.0268 -45.0268 -45.0235 -45.0235
   -45.0183 -45.0183 -45.0154 -45.0153 -45.0113 -45.0113 -45.0086 -45.0086
   -45.0020 -45.0020 -45.0013 -45.0012 -44.9982 -44.9982 -44.9933 -44.9933
   -44.9932 -44.9932 -44.9909 -44.9909 -44.9860 -44.9860 -44.9856 -44.9856
   -44.9849 -44.9849 -44.9840 -44.9840 -44.9824 -44.9824 -44.9790 -44.9790
   -44.9720 -44.9720 -44.9696 -44.9695 -44.9688 -44.9688 -44.9673 -44.9673
   -44.9667 -44.9667 -44.9645 -44.9644 -44.9635 -44.9634 -44.9629 -44.9628
   -44.9623 -44.9622 -44.9617 -44.9617 -44.9592 -44.9592 -44.9585 -44.9585
   -44.9577 -44.9577 -44.9576 -44.9576 -44.9570 -44.9570 -44.9563 -44.9563
   -44.9544 -44.9543 -44.9532 -44.9532 -44.9528 -44.9528 -44.9523 -44.9523
   -44.9496 -44.9495 -44.9487 -44.9487 -44.9478 -44.9478 -44.9474 -44.9474
   -44.9255 -44.9254 -44.9249 -44.9248 -44.9243 -44.9242 -44.9241 -44.9240
   -44.9224 -44.9223 -44.9222 -44.9221 -44.9215 -44.9215 -44.9208 -44.9207
   -44.5645 -44.5643 -44.5642 -44.5641 -44.5641 -44.5639 -44.5638 -44.5637
   -44.5625 -44.5624 -44.5623 -44.5622 -44.5622 -44.5620 -44.5619 -44.5618
   -44.5324 -44.5322 -44.5321 -44.5321 -44.5317 -44.5315 -44.5314 -44.5314
   -44.5313 -44.5313 -44.5312 -44.5312 -44.5308 -44.5306 -44.5305 -44.5305
    -2.2824  -2.2824  -1.4513  -1.4513  -1.4468  -1.4468  -0.6967  -0.6967
    -0.5238  -0.5238  -0.3855  -0.3855  -0.3512  -0.3512  -0.1901  -0.1901
    -0.1889  -0.1889  -0.1608  -0.1608  -0.0824  -0.0824   0.0521   0.0521
     0.0560   0.0560   0.0866   0.0866   0.0870   0.0870   0.1336   0.1336
     0.1722   0.1722   0.2155   0.2155   0.2524   0.2524   0.3326   0.3326
     0.3389   0.3389   0.3463   0.3463   0.3551   0.3551   0.3781   0.3781
     0.3807   0.3807   0.3861   0.3861   0.3874   0.3874   0.4925   0.4925
     0.5894   0.5894   0.5924   0.5924   0.6030   0.6030   0.6050   0.6050
     0.6068   0.6068   0.6177   0.6177   0.6191   0.6191   0.6323   0.6323
     0.6593   0.6593   0.6665   0.6665   0.6931   0.6931   0.6933   0.6933
     0.7848   0.7848   0.8173   0.8173   0.8236   0.8236   0.8389   0.8389
     0.8661   0.8661   0.8882   0.8882   0.8946   0.8946   0.9161   0.9161
     0.9265   0.9265   0.9356   0.9356   0.9596   0.9596   0.9850   0.9850
     1.0093   1.0093   1.0358   1.0358   1.0432   1.0432   1.0443   1.0443
     1.0533   1.0533   1.0635   1.0635   1.0744   1.0744   1.0746   1.0746
     1.1094   1.1094   1.1243   1.1243   1.1250   1.1250   1.1379   1.1380
     1.1561   1.1561   1.1913   1.1913   1.2112   1.2112   1.2441   1.2441
     1.2507   1.2507   1.2513   1.2513   1.2807   1.2807   1.2923   1.2923
     1.3398   1.3398   1.3404   1.3404   1.3786   1.3786   1.3865   1.3865
     1.4217   1.4217   1.4234   1.4234   1.4338   1.4338   1.4455   1.4455
     1.4497   1.4497   1.4542   1.4543   1.4635   1.4635   1.4773   1.4773
     1.5053   1.5053   1.5205   1.5205   1.5250   1.5250   1.5294   1.5294
     1.5446   1.5446   1.5568   1.5568   1.5660   1.5660   1.5892   1.5893
     1.6030   1.6030   1.6050   1.6050   1.6307   1.6307   1.6594   1.6594
     1.6918   1.6918   1.7071   1.7071   1.7072   1.7072   1.7094   1.7094
     1.7297   1.7297   1.7526   1.7526   1.7590   1.7590   1.7696   1.7696
     1.7843   1.7843   1.7985   1.7985   1.8027   1.8027   1.8205   1.8205
     1.8579   1.8579   1.8672   1.8672   1.8780   1.8780   1.8793   1.8793
     1.8951   1.8951   1.8955   1.8955   1.8960   1.8960   1.9058   1.9058
     1.9231   1.9231   1.9322   1.9323   1.9353   1.9353   1.9586   1.9586
     1.9598   1.9598   1.9664   1.9665   1.9924   1.9924   1.9988   1.9988
     2.0274   2.0274   2.0302   2.0302   2.0422   2.0422   2.0472   2.0472
     2.0809   2.0809   2.1165   2.1165   2.1508   2.1508   2.1517   2.1517
     2.1764   2.1764   2.1883   2.1884   2.1926   2.1927   2.1950   2.1950
     2.2186   2.2186   2.2186   2.2186   2.2347   2.2347   2.2537   2.2538
     2.2638   2.2638   2.2860   2.2860   2.3043   2.3043   2.3241   2.3241
     2.3482   2.3482   2.3605   2.3605   2.3850   2.3850   2.3966   2.3966
     2.4057   2.4057   2.4058   2.4058   2.4089   2.4089   2.4380   2.4380
     2.4629   2.4629   2.4769   2.4769   2.4803   2.4803   2.4877   2.4877
     2.5215   2.5215   2.5787   2.5787   2.5875   2.5875   2.5909   2.5909
     2.5927   2.5927   2.5993   2.5993   2.6209   2.6209   2.6360   2.6360
     2.6520   2.6520   2.6630   2.6630   2.6715   2.6715   2.7244   2.7244
     2.7363   2.7363   2.7408   2.7408   2.7794   2.7794   2.7856   2.7856
     2.7949   2.7949   2.8123   2.8123   2.8522   2.8522   2.8536   2.8536
     2.8908   2.8909   2.8920   2.8920   2.9225   2.9225   2.9518   2.9518
     2.9749   2.9749   2.9892   2.9892   3.0304   3.0304   3.0309   3.0310
     3.0372   3.0372   3.0815   3.0815   3.1057   3.1058   3.1520   3.1520
     3.1534   3.1534   3.1700   3.1700   3.2029   3.2029   3.2035   3.2035
     3.2721   3.2721   3.2848   3.2848   3.3028   3.3028   3.3234   3.3234
     3.3371   3.3371   3.3444   3.3444   3.3643   3.3643   3.4405   3.4405
     3.4567   3.4567   3.4599   3.4599   3.4653   3.4653   3.4724   3.4724
     3.4822   3.4822   3.5179   3.5179   3.5243   3.5243   3.5302   3.5302
     3.5360   3.5360   3.5400   3.5400   3.5481   3.5481   3.5575   3.5575
     3.5693   3.5693   3.5925   3.5925   3.6061   3.6061   3.6199   3.6199
     3.6221   3.6222   3.6459   3.6460   3.6643   3.6643   3.6699   3.6699
     3.6963   3.6963   3.7000   3.7000   3.7090   3.7090   3.7246   3.7246
     3.7347   3.7347   3.7511   3.7511   3.7949   3.7950   3.8013   3.8013
     3.8170   3.8170   3.8236   3.8236   3.8313   3.8313   3.8360   3.8360
     3.8666   3.8666   3.8720   3.8720   3.8839   3.8839   3.8870   3.8870
     3.9065   3.9065   3.9453   3.9453   3.9455   3.9455   3.9589   3.9589
     3.9743   3.9743   3.9826   3.9826   3.9905   3.9905   3.9942   3.9942
     4.0095   4.0095   4.0223   4.0223   4.0464   4.0464   4.0515   4.0515
     4.0651   4.0651   4.0659   4.0659   4.0820   4.0821   4.0876   4.0876
     4.0970   4.0970   4.1025   4.1025   4.1291   4.1291   4.1441   4.1441
     4.1580   4.1580   4.1592   4.1592   4.1669   4.1669   4.1939   4.1939
     4.2019   4.2019   4.2030   4.2030   4.2163   4.2163   4.2254   4.2254
     4.2326   4.2326   4.2396   4.2396   4.2431   4.2432   4.2565   4.2565
     4.2586   4.2586   4.2821   4.2821   4.2888   4.2888   4.3045   4.3045
     4.3107   4.3107   4.3132   4.3132   4.3458   4.3458   4.3654   4.3654
     4.3829   4.3829   4.3849   4.3849   4.3894   4.3894   4.3988   4.3988
     4.4071   4.4071   4.4126   4.4126   4.4146   4.4146   4.4356   4.4356
     4.4377   4.4377   4.4457   4.4457   4.4691   4.4691   4.5055   4.5055
     4.5200   4.5200   4.5227   4.5227   4.5253   4.5253   4.5471   4.5471
     4.5486   4.5486   4.5596   4.5596   4.5715   4.5715   4.5846   4.5846
     4.5853   4.5853   4.5994   4.5994   4.6074   4.6074   4.6085   4.6085
     4.6150   4.6150   4.6430   4.6430   4.6632   4.6632   4.6697   4.6697
     4.6733   4.6734   4.6846   4.6846   4.6909   4.6909   4.6930   4.6930
     4.6946   4.6946   4.7037   4.7037   4.7227   4.7227   4.7324   4.7324
     4.7409   4.7409   4.7527   4.7527   4.7554   4.7554   4.7663   4.7663
     4.7860   4.7860   4.7871   4.7871   4.8001   4.8001   4.8019   4.8019
     4.8102   4.8102   4.8405   4.8405   4.8407   4.8407   4.8684   4.8685
     4.8701   4.8701   4.8766   4.8766   4.8871   4.8871   4.9172   4.9172
     4.9292   4.9292   4.9509   4.9509   4.9532   4.9532   4.9667   4.9667
     5.0132   5.0132   5.0246   5.0246   5.0372   5.0372   5.0423   5.0423
     5.0461   5.0461   5.0506   5.0506   5.0581   5.0581   5.0671   5.0671
     5.0769   5.0769   5.0809   5.0809   5.1011   5.1011   5.1106   5.1106
     5.1271   5.1271   5.1306   5.1306   5.1377   5.1377   5.1481   5.1481
     5.1512   5.1512   5.1776   5.1776   5.2020   5.2020   5.2025   5.2025
     5.2142   5.2142   5.2440   5.2440   5.2510   5.2510   5.2902   5.2902
     5.2909   5.2909   5.3027   5.3027   5.3124   5.3124   5.3434   5.3434
     5.3586   5.3586   5.3841   5.3841   5.3843   5.3843   5.3945   5.3945
     5.4155   5.4155   5.4181   5.4181   5.4390   5.4390   5.4721   5.4721
     5.5115   5.5115   5.5479   5.5479   5.5803   5.5803   5.6084   5.6084
     5.6442   5.6442   5.6457   5.6457   5.6596   5.6596   5.6748   5.6748
     5.7014   5.7014   5.7095   5.7095   5.7346   5.7346   5.7378   5.7378
     5.7527   5.7527   5.7896   5.7896   5.8074   5.8074   5.8309   5.8309
     5.9390   5.9390   5.9932   5.9932   6.0133   6.0133   6.2050   6.2050
     6.2192   6.2192   6.3679   6.3679   6.4645   6.4645   6.5842   6.5842
     6.6624   6.6624   6.6742   6.6742   6.7059   6.7059   6.7544   6.7544
     6.7928   6.7928   6.8137   6.8137   6.8363   6.8363   7.0251   7.0251
     7.3305   7.3305   7.3736   7.3736   7.4503   7.4503   7.5273   7.5273
     7.6650   7.6650   7.6803   7.6803   7.7360   7.7360   7.7584   7.7584
     7.7742   7.7742   7.7953   7.7953   8.0219   8.0219   8.1338   8.1338
     8.2357   8.2357   8.3420   8.3420   8.5615   8.5615   8.6228   8.6228
     8.6628   8.6628   8.6887   8.6887   8.6995   8.6995   8.7193   8.7193
     8.7974   8.7974   8.8247   8.8247   8.8772   8.8772   8.9597   8.9597
     8.9872   8.9872   8.9887   8.9887   8.9916   8.9916   9.2033   9.2033
     9.2302   9.2302   9.6321   9.6321   9.6531   9.6531   9.6871   9.6871
     9.7716   9.7716   9.8390   9.8390   9.8692   9.8692   9.8821   9.8821
     9.9878   9.9878   9.9929   9.9929  10.0755  10.0755  10.0951  10.0951
    10.1735  10.1735  10.4377  10.4377  10.5733  10.5733  10.6043  10.6043
    10.6575  10.6575  11.0286  11.0286  11.0382  11.0382  11.1301  11.1301
    11.2224  11.2224  11.2859  11.2859  11.3686  11.3686  11.4121  11.4121
    11.4224  11.4224  11.4413  11.4413  11.6196  11.6196  11.6776  11.6776
    11.6999  11.6999  11.7524  11.7524  11.7707  11.7707  11.7837  11.7837
    11.8661  11.8661  11.9161  11.9161  11.9253  11.9253  11.9848  11.9848
    12.0458  12.0458  12.1119  12.1119  12.1181  12.1181  12.4335  12.4336
    12.4673  12.4673  12.4866  12.4867  12.5151  12.5151  12.5848  12.5848
    12.6372  12.6372  12.6758  12.6758  12.7203  12.7203  12.7579  12.7579
    12.7746  12.7746  12.8269  12.8269  12.8833  12.8833  12.9033  12.9033
    12.9768  12.9768  13.0613  13.0613  13.1699  13.1699  13.1873  13.1873
    13.1937  13.1937  13.2089  13.2089  13.3643  13.3643  13.3854  13.3854
    13.4064  13.4064  13.4150  13.4150  13.4599  13.4599  13.4679  13.4679
    13.5193  13.5193  13.5667  13.5667  13.5747  13.5748  13.5881  13.5881
    13.7524  13.7524  13.8316  13.8316  13.8613  13.8612  13.9489  13.9489
    14.0126  14.0126  14.0170  14.0171  14.0742  14.0742  14.1229  14.1230
    14.1838  14.1838  14.2396  14.2396  14.2416  14.2416  14.2972  14.2973
    14.3000  14.3000  14.3140  14.3140  14.4188  14.4188  14.4521  14.4521
    14.5515  14.5515  14.5655  14.5655  14.5669  14.5669  14.6605  14.6606
    14.6904  14.6904  14.7906  14.7906  14.7958  14.7958  14.8455  14.8455
    14.8806  14.8806  14.9547  14.9546  14.9569  14.9570  14.9799  14.9799
    14.9927  14.9926  15.0127  15.0127  15.0175  15.0173  15.0191  15.0191
    15.0399  15.0399  15.2134  15.2133  15.2158  15.2158  15.2504  15.2505
    15.2806  15.2804  15.3061  15.3068  15.3245  15.3246  15.3582  15.3585
    15.4047  15.4049

     occupation numbers 
     1.0000   1.0000   1.0000   1.0000   1.0000   1.0000   1.0000   1.0000
     1.0000   1.0000   1.0000   1.0000   1.0000   1.0000   1.0000   1.0000
     1.0000   1.0000   1.0000   1.0000   1.0000   1.0000   1.0000   1.0000
     1.0000   1.0000   1.0000   1.0000   1.0000   1.0000   1.0000   1.0000
     1.0000   1.0000   1.0000   1.0000   1.0000   1.0000   1.0000   1.0000
     1.0000   1.0000   1.0000   1.0000   1.0000   1.0000   1.0000   1.0000
     1.0000   1.0000   1.0000   1.0000   1.0000   1.0000   1.0000   1.0000
     1.0000   1.0000   1.0000   1.0000   1.0000   1.0000   1.0000   1.0000
     1.0000   1.0000   1.0000   1.0000   1.0000   1.0000   1.0000   1.0000
     1.0000   1.0000   1.0000   1.0000   1.0000   1.0000   1.0000   1.0000
     1.0000   1.0000   1.0000   1.0000   1.0000   1.0000   1.0000   1.0000
     1.0000   1.0000   1.0000   1.0000   1.0000   1.0000   1.0000   1.0000
     1.0000   1.0000   1.0000   1.0000   1.0000   1.0000   1.0000   1.0000
     1.0000   1.0000   1.0000   1.0000   1.0000   1.0000   1.0000   1.0000
     1.0000   1.0000   1.0000   1.0000   1.0000   1.0000   1.0000   1.0000
     1.0000   1.0000   1.0000   1.0000   1.0000   1.0000   1.0000   1.0000
     1.0000   1.0000   1.0000   1.0000   1.0000   1.0000   1.0000   1.0000
     1.0000   1.0000   1.0000   1.0000   1.0000   1.0000   1.0000   1.0000
     1.0000   1.0000   1.0000   1.0000   1.0000   1.0000   1.0000   1.0000
     1.0000   1.0000   1.0000   1.0000   1.0000   1.0000   1.0000   1.0000
     1.0000   1.0000   1.0000   1.0000   1.0000   1.0000   1.0000   1.0000
     1.0000   1.0000   1.0000   1.0000   1.0000   1.0000   1.0000   1.0000
     1.0000   1.0000   1.0000   1.0000   1.0000   1.0000   1.0000   1.0000
     1.0000   1.0000   1.0000   1.0000   1.0000   1.0000   1.0000   1.0000
     1.0000   1.0000   1.0000   1.0000   1.0000   1.0000   1.0000   1.0000
     1.0000   1.0000   1.0000   1.0000   1.0000   1.0000   1.0000   1.0000
     1.0000   1.0000   1.0000   1.0000   1.0000   1.0000   1.0000   1.0000
     1.0000   1.0000   1.0000   1.0000   1.0000   1.0000   1.0000   1.0000
     1.0000   1.0000   1.0000   1.0000   1.0000   1.0000   1.0000   1.0000
     1.0000   1.0000   1.0000   1.0000   1.0000   1.0000   1.0000   1.0000
     1.0000   1.0000   1.0000   1.0000   1.0000   1.0000   1.0000   1.0000
     1.0000   1.0000   1.0000   1.0000   1.0000   1.0000   1.0000   1.0000
     1.0000   1.0000   1.0000   1.0000   1.0000   1.0000   1.0000   1.0000
     1.0000   1.0000   1.0000   1.0000   1.0000   1.0000   1.0000   1.0000
     1.0000   1.0000   1.0000   1.0000   1.0000   1.0000   1.0000   1.0000
     1.0000   1.0000   1.0000   1.0000   1.0000   1.0000   1.0000   1.0000
     1.0000   1.0000   1.0000   1.0000   1.0000   1.0000   1.0000   1.0000
     1.0000   1.0000   1.0000   1.0000   1.0000   1.0000   1.0000   1.0000
     1.0000   1.0000   1.0000   1.0000   1.0000   1.0000   1.0000   1.0000
     1.0000   1.0000   1.0000   1.0000   1.0000   1.0000   1.0000   1.0000
     1.0000   1.0000   1.0000   1.0000   1.0000   1.0000   1.0000   1.0000
     1.0000   1.0000   1.0000   1.0000   1.0000   1.0000   1.0000   1.0000
     1.0000   1.0000   1.0000   1.0000   1.0000   1.0000   1.0000   1.0000
     1.0000   1.0000   1.0000   1.0000   1.0000   1.0000   1.0000   1.0000
     1.0000   1.0000   1.0000   1.0000   1.0000   1.0000   1.0000   1.0000
     1.0000   1.0000   1.0000   1.0000   1.0000   1.0000   1.0000   1.0000
     1.0000   1.0000   1.0000   1.0000   1.0000   1.0000   1.0000   1.0000
     1.0000   1.0000   1.0000   1.0000   1.0000   1.0000   1.0000   1.0000
     1.0000   1.0000   1.0000   1.0000   1.0000   1.0000   1.0000   1.0000
     1.0000   1.0000   1.0000   1.0000   1.0000   1.0000   1.0000   1.0000
     1.0000   1.0000   1.0000   1.0000   1.0000   1.0000   1.0000   1.0000
     1.0000   1.0000   1.0000   1.0000   1.0000   1.0000   1.0000   1.0000
     1.0000   1.0000   1.0000   1.0000   1.0000   1.0000   1.0000   1.0000
     1.0000   1.0000   1.0000   1.0000   1.0000   1.0000   1.0000   1.0000
     1.0000   1.0000   1.0000   1.0000   1.0000   1.0000   1.0000   1.0000
     1.0000   1.0000   1.0000   1.0000   1.0000   1.0000   1.0000   1.0000
     1.0000   1.0000   1.0000   1.0000   1.0000   1.0000   1.0000   1.0000
     1.0000   1.0000   1.0000   1.0000   1.0000   1.0000   1.0000   1.0000
     1.0000   1.0000   1.0000   1.0000   1.0000   1.0000   1.0000   1.0000
     1.0000   1.0000   1.0000   1.0000   1.0000   1.0000   1.0000   1.0000
     1.0000   1.0000   1.0000   1.0000   1.0000   1.0000   1.0000   1.0000
     1.0000   1.0000   1.0000   1.0000   1.0000   1.0000   1.0000   1.0000
     1.0000   1.0000   1.0000   1.0000   1.0000   1.0000   1.0000   1.0000
     1.0000   1.0000   1.0000   1.0000   1.0000   1.0000   1.0000   1.0000
     1.0000   1.0000   1.0000   1.0000   1.0000   1.0000   1.0000   1.0000
     1.0000   1.0000   1.0000   1.0000   1.0000   1.0000   1.0000   1.0000
     1.0000   1.0000   1.0000   1.0000   1.0000   1.0000   1.0000   1.0000
     1.0000   1.0000   1.0000   1.0000   1.0000   1.0000   1.0000   1.0000
     1.0000   1.0000   1.0000   1.0000   1.0000   1.0000   1.0000   1.0000
     1.0000   1.0000   1.0000   1.0000   1.0000   1.0000   1.0000   1.0000
     1.0000   1.0000   1.0000   1.0000   1.0000   1.0000   1.0000   1.0000
     1.0000   1.0000   1.0000   1.0000   1.0000   1.0000   1.0000   1.0000
     1.0000   1.0000   1.0000   1.0000   1.0000   1.0000   1.0000   1.0000
     1.0000   1.0000   1.0000   1.0000   1.0000   1.0000   1.0000   1.0000
     1.0000   1.0000   1.0000   1.0000   1.0000   1.0000   1.0000   1.0000
     1.0000   1.0000   1.0000   1.0000   1.0000   1.0000   1.0000   1.0000
     1.0000   1.0000   1.0000   1.0000   1.0000   1.0000   1.0000   1.0000
     1.0000   1.0000   1.0000   1.0000   1.0000   1.0000   1.0000   1.0000
     1.0000   1.0000   1.0000   1.0000   1.0000   1.0000   1.0000   1.0000
     1.0000   1.0000   1.0000   1.0000   1.0000   1.0000   1.0000   1.0000
     1.0000   1.0000   1.0000   1.0000   1.0000   1.0000   1.0000   1.0000
     1.0000   1.0000   1.0000   1.0000   1.0000   1.0000   1.0000   1.0000
     1.0000   1.0000   1.0000   1.0000   1.0000   1.0000   1.0000   1.0000
     1.0000   1.0000   1.0000   1.0000   1.0000   1.0000   1.0000   1.0000
     1.0000   1.0000   1.0000   1.0000   1.0000   1.0000   1.0000   1.0000
     1.0000   1.0000   1.0000   1.0000   1.0000   1.0000   1.0000   1.0000
     1.0000   1.0000   1.0000   1.0000   1.0000   1.0000   1.0000   1.0000
     1.0000   1.0000   1.0000   1.0000   1.0000   1.0000   1.0000   1.0000
     1.0000   1.0000   1.0000   1.0000   1.0000   1.0000   1.0000   1.0000
     1.0000   1.0000   1.0000   1.0000   1.0000   1.0000   1.0000   1.0000
     1.0000   1.0000   1.0000   1.0000   1.0000   1.0000   1.0000   1.0000
     1.0000   1.0000   1.0000   1.0000   1.0000   1.0000   1.0000   1.0000
     1.0000   1.0000   1.0000   1.0000   1.0000   1.0000   1.0000   1.0000
     1.0000   1.0000   1.0000   1.0000   1.0000   1.0000   1.0000   1.0000
     1.0000   1.0000   1.0000   1.0000   1.0000   1.0000   1.0000   1.0000
     1.0000   1.0000   1.0000   1.0000   1.0000   1.0000   1.0000   1.0000
     1.0000   1.0000   1.0000   1.0000   1.0000   1.0000   1.0000   1.0000
     1.0000   1.0000   1.0000   1.0000   1.0000   1.0000   1.0000   1.0000
     1.0000   1.0000   1.0000   1.0000   1.0000   1.0000   1.0000   1.0000
     1.0000   1.0000   1.0000   1.0000   1.0000   1.0000   1.0000   1.0000
     1.0000   1.0000   1.0000   1.0000   1.0000   1.0000   1.0000   1.0000
     1.0000   1.0000   1.0000   1.0000   1.0000   1.0000   1.0000   1.0000
     1.0000   1.0000   1.0000   1.0000   1.0000   1.0000   1.0000   1.0000
     1.0000   1.0000   1.0000   1.0000   1.0000   1.0000   1.0000   1.0000
     1.0000   1.0000   1.0000   1.0000   1.0000   1.0000   1.0000   1.0000
     1.0000   1.0000   1.0000   1.0000   1.0000   1.0000   1.0000   1.0000
     1.0000   1.0000   1.0000   1.0000   1.0000   1.0000   1.0000   1.0000
     1.0000   1.0000   1.0000   1.0000   1.0000   1.0000   1.0000   1.0000
     1.0000   1.0000   1.0000   1.0000   1.0000   1.0000   1.0000   1.0000
     1.0000   1.0000   1.0000   1.0000   1.0000   1.0000   1.0000   1.0000
     1.0000   1.0000   1.0000   1.0000   1.0000   1.0000   1.0000   1.0000
     1.0000   1.0000   1.0000   1.0000   1.0000   1.0000   1.0000   1.0000
     1.0000   1.0000   1.0000   1.0000   1.0000   1.0000   1.0000   1.0000
     1.0000   1.0000   1.0000   1.0000   1.0000   1.0000   1.0000   1.0000
     1.0000   1.0000   1.0000   1.0000   1.0000   1.0000   1.0000   1.0000
     1.0000   1.0000   1.0000   1.0000   1.0000   1.0000   1.0000   1.0000
     1.0000   1.0000   1.0000   1.0000   1.0000   1.0000   1.0000   1.0000
     1.0000   1.0000   1.0000   1.0000   1.0000   1.0000   1.0000   1.0000
     1.0000   1.0000   1.0000   1.0000   1.0000   1.0000   1.0000   1.0000
     1.0000   1.0000   1.0000   1.0000   1.0000   1.0000   1.0000   1.0000
     1.0000   1.0000   1.0000   1.0000   1.0000   1.0000   1.0000   1.0000
     1.0000   1.0000   1.0000   1.0000   1.0000   1.0000   1.0000   1.0000
     1.0000   1.0000   1.0000   1.0000   1.0000   1.0000   1.0000   1.0000
     1.0000   1.0000   1.0000   1.0000   1.0000   1.0000   1.0000   1.0000
     1.0000   1.0000   1.0000   1.0000   1.0000   1.0000   1.0000   1.0000
     1.0000   1.0000   1.0000   1.0000   1.0000   1.0000   1.0000   1.0000
     1.0000   1.0000   1.0000   1.0000   1.0000   1.0000   1.0000   1.0000
     1.0000   1.0000   1.0000   1.0000   1.0000   1.0000   1.0000   1.0000
     1.0000   1.0000   1.0000   1.0000   1.0000   1.0000   1.0000   1.0000
     1.0000   1.0000   1.0000   1.0000   1.0000   1.0000   1.0000   1.0000
     1.0000   1.0000   1.0000   1.0000   1.0000   1.0000   1.0000   1.0000
     1.0000   1.0000   1.0000   1.0000   1.0000   1.0000   1.0000   1.0000
     1.0000   1.0000   1.0000   1.0000   1.0000   1.0000   1.0000   1.0000
     1.0000   1.0000   1.0000   1.0000   1.0000   1.0000   1.0000   1.0000
     1.0000   1.0000   1.0000   1.0000   1.0000   1.0000   1.0000   1.0000
     1.0000   1.0000   1.0000   1.0000   1.0000   1.0000   1.0000   1.0000
     1.0000   1.0000   1.0000   1.0000   1.0000   1.0000   1.0000   1.0000
     1.0000   1.0000   1.0000   1.0000   1.0000   1.0000   1.0000   1.0000
     1.0000   1.0000   1.0000   1.0000   1.0000   1.0000   1.0000   1.0000
     1.0000   1.0000   1.0000   1.0000   1.0000   1.0000   1.0000   1.0000
     1.0000   1.0000   1.0000   1.0000   1.0000   1.0000   1.0000   1.0000
     1.0000   1.0000   1.0000   1.0000   1.0000   1.0000   1.0000   1.0000
     1.0000   1.0000   1.0000   1.0000   1.0000   1.0000   1.0000   1.0000
     1.0000   1.0000   1.0000   1.0000   1.0000   1.0000   1.0000   1.0000
     1.0000   1.0000   1.0000   1.0000   1.0000   1.0000   1.0000   1.0000
     1.0000   1.0000   1.0000   1.0000   1.0000   1.0000   1.0000   1.0000
     1.0000   1.0000   1.0000   1.0000   1.0000   1.0000   1.0000   1.0000
     1.0000   1.0000   1.0000   1.0000   1.0000   1.0000   1.0000   1.0000
     1.0000   1.0000   1.0000   1.0000   1.0000   1.0000   1.0000   1.0000
     1.0000   1.0000   1.0000   1.0000   1.0000   1.0000   1.0000   1.0000
     1.0000   1.0000   1.0000   1.0000   1.0000   1.0000   1.0000   1.0000
     1.0000   1.0000   1.0000   1.0000   1.0000   1.0000   1.0000   1.0000
     1.0000   1.0000   1.0000   1.0000   1.0000   1.0000   1.0000   1.0000
     1.0000   1.0000   1.0000   1.0000   1.0000   1.0000   1.0000   1.0000
     1.0000   1.0000   1.0000   1.0000   1.0000   1.0000   1.0000   1.0000
     1.0000   1.0000   1.0000   1.0000   1.0000   1.0000   1.0000   1.0000
     1.0000   1.0000   1.0000   1.0000   1.0000   1.0000   1.0000   1.0000
     1.0000   1.0000   1.0000   1.0000   1.0000   1.0000   1.0000   1.0000
     1.0000   1.0000   1.0000   1.0000   1.0000   1.0000   1.0000   1.0000
     1.0000   1.0000   1.0000   1.0000   1.0000   1.0000   1.0000   1.0000
     1.0000   1.0000   1.0000   1.0000   1.0000   1.0000   1.0000   1.0000
     1.0000   1.0000   1.0000   1.0000   1.0000   1.0000   1.0000   1.0000
     1.0000   1.0000   1.0000   1.0000   1.0000   1.0000   1.0000   1.0000
     1.0000   1.0000   1.0000   1.0000   1.0000   1.0000   1.0000   1.0000
     1.0000   1.0000   1.0000   1.0000   1.0000   1.0000   1.0000   1.0000
     1.0000   1.0000   1.0000   1.0000   1.0000   1.0000   1.0000   1.0000
     1.0000   1.0000   1.0000   1.0000   1.0000   1.0000   1.0000   1.0000
     1.0000   1.0000   1.0000   1.0000   1.0000   1.0000   1.0000   1.0000
     1.0000   1.0000   1.0000   1.0000   1.0000   1.0000   1.0000   1.0000
     1.0000   1.0000   1.0000   1.0000   1.0000   1.0000   0.9999   0.9999
     0.9987   0.9987   0.9980   0.9980   0.9935   0.9935   0.9627   0.9627
     0.8629   0.8629   0.7447   0.7446   0.5594   0.5594   0.0012   0.0012
     0.0000   0.0000   0.0000   0.0000   0.0000   0.0000   0.0000   0.0000
     0.0000   0.0000   0.0000   0.0000   0.0000   0.0000   0.0000   0.0000
     0.0000   0.0000   0.0000   0.0000   0.0000   0.0000   0.0000   0.0000
     0.0000   0.0000   0.0000   0.0000   0.0000   0.0000   0.0000   0.0000
     0.0000   0.0000   0.0000   0.0000   0.0000   0.0000   0.0000   0.0000
     0.0000   0.0000   0.0000   0.0000   0.0000   0.0000   0.0000   0.0000
     0.0000   0.0000   0.0000   0.0000   0.0000   0.0000   0.0000   0.0000
     0.0000   0.0000   0.0000   0.0000   0.0000   0.0000   0.0000   0.0000
     0.0000   0.0000   0.0000   0.0000   0.0000   0.0000   0.0000   0.0000
     0.0000   0.0000   0.0000   0.0000   0.0000   0.0000   0.0000   0.0000
     0.0000   0.0000   0.0000   0.0000   0.0000   0.0000   0.0000   0.0000
     0.0000   0.0000   0.0000   0.0000   0.0000   0.0000   0.0000   0.0000
     0.0000   0.0000   0.0000   0.0000   0.0000   0.0000   0.0000   0.0000
     0.0000   0.0000   0.0000   0.0000   0.0000   0.0000   0.0000   0.0000
     0.0000   0.0000   0.0000   0.0000   0.0000   0.0000   0.0000   0.0000
     0.0000   0.0000   0.0000   0.0000   0.0000   0.0000   0.0000   0.0000
     0.0000   0.0000   0.0000   0.0000   0.0000   0.0000   0.0000   0.0000
     0.0000   0.0000   0.0000   0.0000   0.0000   0.0000   0.0000   0.0000
     0.0000   0.0000   0.0000   0.0000   0.0000   0.0000   0.0000   0.0000
     0.0000   0.0000   0.0000   0.0000   0.0000   0.0000   0.0000   0.0000
     0.0000   0.0000   0.0000   0.0000   0.0000   0.0000   0.0000   0.0000
     0.0000   0.0000   0.0000   0.0000   0.0000   0.0000   0.0000   0.0000
     0.0000   0.0000   0.0000   0.0000   0.0000   0.0000   0.0000   0.0000
     0.0000   0.0000   0.0000   0.0000   0.0000   0.0000   0.0000   0.0000
     0.0000   0.0000   0.0000   0.0000   0.0000   0.0000   0.0000   0.0000
     0.0000   0.0000   0.0000   0.0000   0.0000   0.0000   0.0000   0.0000
     0.0000   0.0000   0.0000   0.0000   0.0000   0.0000   0.0000   0.0000
     0.0000   0.0000   0.0000   0.0000   0.0000   0.0000   0.0000   0.0000
     0.0000   0.0000   0.0000   0.0000   0.0000   0.0000   0.0000   0.0000
     0.0000   0.0000   0.0000   0.0000   0.0000   0.0000   0.0000   0.0000
     0.0000   0.0000   0.0000   0.0000   0.0000   0.0000   0.0000   0.0000
     0.0000   0.0000   0.0000   0.0000   0.0000   0.0000   0.0000   0.0000
     0.0000   0.0000   0.0000   0.0000   0.0000   0.0000   0.0000   0.0000
     0.0000   0.0000   0.0000   0.0000   0.0000   0.0000   0.0000   0.0000
     0.0000   0.0000

          k = 0.0000 0.0000 0.0243 (214784 PWs)   bands (ev):

   -98.4016 -98.4016 -98.4004 -98.4004 -98.3962 -98.3962 -98.3961 -98.3961
   -98.3961 -98.3961 -98.3959 -98.3959 -98.3957 -98.3957 -98.3946 -98.3946
   -98.3371 -98.3371 -98.3365 -98.3365 -98.3365 -98.3365 -98.3363 -98.3363
   -98.3360 -98.3360 -98.3359 -98.3359 -98.3352 -98.3352 -98.3346 -98.3346
   -98.3344 -98.3344 -98.3338 -98.3338 -98.3330 -98.3330 -98.3329 -98.3329
   -98.3325 -98.3325 -98.3325 -98.3325 -98.3323 -98.3323 -98.3317 -98.3317
   -98.2510 -98.2510 -98.2510 -98.2510 -98.2509 -98.2509 -98.2508 -98.2508
   -98.2507 -98.2507 -98.2507 -98.2507 -98.2506 -98.2506 -98.2504 -98.2504
   -97.8347 -97.8347 -97.8347 -97.8347 -97.8345 -97.8345 -97.8345 -97.8345
   -97.8341 -97.8341 -97.8340 -97.8340 -97.8339 -97.8339 -97.8338 -97.8338
   -97.8318 -97.8318 -97.8318 -97.8318 -97.8316 -97.8316 -97.8316 -97.8316
   -97.8313 -97.8313 -97.8313 -97.8313 -97.8311 -97.8311 -97.8311 -97.8311
   -97.8025 -97.8025 -97.8024 -97.8024 -97.8024 -97.8024 -97.8023 -97.8023
   -97.8022 -97.8022 -97.8020 -97.8020 -97.8019 -97.8019 -97.8019 -97.8019
   -97.8004 -97.8004 -97.8003 -97.8003 -97.8003 -97.8003 -97.8002 -97.8002
   -97.8001 -97.8001 -97.7999 -97.7999 -97.7999 -97.7999 -97.7999 -97.7999
   -97.3703 -97.3703 -97.3701 -97.3701 -97.3701 -97.3701 -97.3700 -97.3700
   -97.3699 -97.3699 -97.3699 -97.3699 -97.3698 -97.3698 -97.3697 -97.3697
   -62.0895 -62.0895 -62.0859 -62.0859 -62.0857 -62.0857 -62.0854 -62.0854
   -62.0853 -62.0853 -62.0852 -62.0852 -62.0709 -62.0709 -62.0680 -62.0680
   -62.0287 -62.0287 -62.0266 -62.0266 -62.0263 -62.0263 -62.0262 -62.0262
   -62.0244 -62.0244 -62.0243 -62.0243 -62.0220 -62.0220 -62.0197 -62.0197
   -62.0186 -62.0186 -62.0166 -62.0166 -62.0131 -62.0131 -62.0130 -62.0130
   -62.0113 -62.0113 -62.0112 -62.0112 -62.0097 -62.0097 -62.0071 -62.0071
   -61.9367 -61.9367 -61.9365 -61.9365 -61.9364 -61.9364 -61.9363 -61.9363
   -61.9362 -61.9362 -61.9360 -61.9360 -61.9358 -61.9358 -61.9357 -61.9357
   -61.5218 -61.5217 -61.5216 -61.5216 -61.5215 -61.5215 -61.5214 -61.5214
   -61.5192 -61.5192 -61.5191 -61.5191 -61.5190 -61.5190 -61.5188 -61.5188
   -61.5111 -61.5110 -61.5110 -61.5109 -61.5108 -61.5108 -61.5107 -61.5107
   -61.5098 -61.5098 -61.5097 -61.5097 -61.5095 -61.5095 -61.5094 -61.5094
   -61.4872 -61.4872 -61.4871 -61.4871 -61.4868 -61.4868 -61.4867 -61.4867
   -61.4865 -61.4865 -61.4863 -61.4863 -61.4859 -61.4859 -61.4857 -61.4857
   -61.4799 -61.4799 -61.4798 -61.4798 -61.4795 -61.4795 -61.4794 -61.4794
   -61.4793 -61.4793 -61.4791 -61.4791 -61.4788 -61.4788 -61.4787 -61.4787
   -61.0567 -61.0567 -61.0565 -61.0565 -61.0565 -61.0565 -61.0564 -61.0564
   -61.0563 -61.0563 -61.0563 -61.0563 -61.0562 -61.0561 -61.0561 -61.0561
   -45.6402 -45.6402 -45.6371 -45.6371 -45.6304 -45.6303 -45.6292 -45.6292
   -45.6230 -45.6230 -45.6229 -45.6229 -45.6159 -45.6159 -45.6157 -45.6157
   -45.6066 -45.6066 -45.6025 -45.6025 -45.5783 -45.5783 -45.5779 -45.5779
   -45.5766 -45.5766 -45.5744 -45.5744 -45.5660 -45.5660 -45.5607 -45.5607
   -45.5541 -45.5541 -45.5529 -45.5528 -45.5523 -45.5523 -45.5520 -45.5520
   -45.5439 -45.5439 -45.5437 -45.5437 -45.5330 -45.5330 -45.5306 -45.5306
   -45.5262 -45.5262 -45.5241 -45.5240 -45.5183 -45.5183 -45.5173 -45.5173
   -45.5168 -45.5167 -45.5162 -45.5162 -45.5106 -45.5106 -45.5099 -45.5098
   -45.5016 -45.5015 -45.4999 -45.4999 -45.4972 -45.4972 -45.4968 -45.4968
   -45.4917 -45.4917 -45.4894 -45.4894 -45.4893 -45.4893 -45.4852 -45.4852
   -45.4812 -45.4811 -45.4781 -45.4781 -45.4752 -45.4752 -45.4711 -45.4711
   -45.4647 -45.4647 -45.4645 -45.4645 -45.4625 -45.4624 -45.4586 -45.4586
   -45.4289 -45.4288 -45.4282 -45.4282 -45.4272 -45.4272 -45.4267 -45.4266
   -45.4192 -45.4192 -45.4185 -45.4185 -45.4180 -45.4179 -45.4171 -45.4170
   -45.4161 -45.4160 -45.4154 -45.4153 -45.4149 -45.4148 -45.4122 -45.4121
   -45.4104 -45.4104 -45.4082 -45.4081 -45.4072 -45.4072 -45.4056 -45.4055
   -45.0690 -45.0690 -45.0685 -45.0685 -45.0662 -45.0661 -45.0638 -45.0638
   -45.0575 -45.0574 -45.0573 -45.0573 -45.0555 -45.0555 -45.0523 -45.0523
   -45.0405 -45.0405 -45.0386 -45.0386 -45.0377 -45.0377 -45.0353 -45.0353
   -45.0352 -45.0352 -45.0314 -45.0314 -45.0308 -45.0308 -45.0276 -45.0276
   -45.0155 -45.0154 -45.0121 -45.0121 -45.0053 -45.0052 -45.0049 -45.0049
   -45.0022 -45.0022 -45.0008 -45.0008 -44.9951 -44.9951 -44.9925 -44.9925
   -44.9907 -44.9907 -44.9893 -44.9893 -44.9862 -44.9862 -44.9815 -44.9815
   -44.9815 -44.9815 -44.9794 -44.9794 -44.9794 -44.9794 -44.9777 -44.9777
   -44.9759 -44.9759 -44.9725 -44.9724 -44.9717 -44.9717 -44.9706 -44.9706
   -44.9681 -44.9681 -44.9677 -44.9677 -44.9657 -44.9657 -44.9644 -44.9644
   -44.9617 -44.9617 -44.9607 -44.9607 -44.9602 -44.9602 -44.9589 -44.9588
   -44.9565 -44.9565 -44.9557 -44.9557 -44.9552 -44.9552 -44.9550 -44.9550
   -44.9532 -44.9532 -44.9532 -44.9532 -44.9532 -44.9531 -44.9517 -44.9517
   -44.9507 -44.9507 -44.9504 -44.9504 -44.9499 -44.9499 -44.9489 -44.9488
   -44.9256 -44.9255 -44.9253 -44.9253 -44.9252 -44.9252 -44.9235 -44.9234
   -44.9230 -44.9230 -44.9216 -44.9215 -44.9202 -44.9202 -44.9201 -44.9200
   -44.5642 -44.5640 -44.5639 -44.5639 -44.5634 -44.5632 -44.5632 -44.5632
   -44.5631 -44.5630 -44.5629 -44.5629 -44.5624 -44.5622 -44.5622 -44.5621
   -44.5328 -44.5326 -44.5326 -44.5325 -44.5325 -44.5323 -44.5323 -44.5322
   -44.5306 -44.5304 -44.5304 -44.5303 -44.5303 -44.5301 -44.5301 -44.5300
    -1.9482  -1.9482  -1.3211  -1.3211  -1.1699  -1.1699  -1.1647  -1.1647
    -0.6706  -0.6706  -0.6641  -0.6641  -0.5437  -0.5437  -0.3201  -0.3201
    -0.2199  -0.2199  -0.1488  -0.1488  -0.0661  -0.0661   0.0282   0.0282
     0.0415   0.0415   0.1199   0.1199   0.1415   0.1415   0.1549   0.1549
     0.2657   0.2657   0.2760   0.2760   0.2872   0.2872   0.3182   0.3182
     0.3335   0.3335   0.4105   0.4105   0.4129   0.4129   0.4246   0.4246
     0.4491   0.4491   0.4509   0.4509   0.4608   0.4608   0.5142   0.5142
     0.5151   0.5151   0.5864   0.5864   0.6032   0.6032   0.6313   0.6313
     0.6411   0.6411   0.6475   0.6475   0.6695   0.6695   0.6885   0.6885
     0.6992   0.6992   0.7016   0.7017   0.7574   0.7574   0.7594   0.7594
     0.7781   0.7781   0.7808   0.7808   0.7868   0.7868   0.8040   0.8040
     0.8318   0.8318   0.8391   0.8391   0.8652   0.8652   0.8737   0.8737
     0.8792   0.8792   0.9110   0.9110   0.9184   0.9184   0.9236   0.9236
     0.9439   0.9439   0.9461   0.9461   0.9471   0.9471   0.9807   0.9807
     0.9949   0.9949   1.0256   1.0256   1.0380   1.0380   1.0515   1.0515
     1.0791   1.0791   1.0814   1.0815   1.0838   1.0838   1.0872   1.0872
     1.1172   1.1172   1.1542   1.1542   1.1895   1.1895   1.2021   1.2021
     1.2114   1.2114   1.2315   1.2315   1.2518   1.2518   1.2584   1.2585
     1.2934   1.2935   1.3039   1.3039   1.3066   1.3066   1.3686   1.3686
     1.3838   1.3838   1.3863   1.3864   1.4438   1.4438   1.4578   1.4578
     1.4765   1.4765   1.5065   1.5065   1.5324   1.5325   1.5532   1.5532
     1.5591   1.5591   1.5729   1.5729   1.5743   1.5743   1.5770   1.5770
     1.5967   1.5967   1.5983   1.5983   1.6111   1.6111   1.6461   1.6461
     1.6481   1.6481   1.6579   1.6579   1.6601   1.6601   1.6679   1.6679
     1.6804   1.6804   1.6898   1.6898   1.6901   1.6901   1.7144   1.7144
     1.7183   1.7183   1.7514   1.7514   1.7579   1.7580   1.7746   1.7746
     1.7898   1.7898   1.7969   1.7969   1.8168   1.8168   1.8323   1.8323
     1.8352   1.8352   1.8632   1.8632   1.8690   1.8690   1.8959   1.8960
     1.8966   1.8966   1.9100   1.9100   1.9138   1.9138   1.9189   1.9190
     1.9453   1.9453   1.9534   1.9534   1.9545   1.9545   1.9639   1.9639
     1.9658   1.9658   1.9919   1.9919   1.9937   1.9937   2.0204   2.0205
     2.0398   2.0398   2.0525   2.0525   2.0719   2.0719   2.0813   2.0813
     2.0839   2.0839   2.1181   2.1181   2.1312   2.1312   2.1482   2.1482
     2.1583   2.1583   2.1788   2.1788   2.1926   2.1926   2.1927   2.1927
     2.2147   2.2147   2.2189   2.2189   2.2252   2.2252   2.2438   2.2439
     2.2581   2.2581   2.2606   2.2606   2.2676   2.2676   2.2921   2.2921
     2.2949   2.2949   2.3349   2.3349   2.3408   2.3408   2.3559   2.3559
     2.3883   2.3884   2.3986   2.3986   2.4830   2.4830   2.4909   2.4910
     2.4976   2.4976   2.5083   2.5083   2.5287   2.5287   2.5520   2.5520
     2.5524   2.5524   2.5622   2.5622   2.5759   2.5759   2.5986   2.5986
     2.6479   2.6479   2.6609   2.6609   2.6685   2.6685   2.6715   2.6715
     2.6826   2.6826   2.7023   2.7023   2.7042   2.7042   2.7118   2.7118
     2.7171   2.7171   2.7338   2.7338   2.7430   2.7430   2.7677   2.7677
     2.7738   2.7738   2.8025   2.8025   2.8064   2.8064   2.8516   2.8516
     2.8551   2.8551   2.8649   2.8650   2.8977   2.8977   2.9600   2.9600
     3.0161   3.0161   3.0308   3.0308   3.0581   3.0581   3.0661   3.0662
     3.0734   3.0734   3.0879   3.0880   3.1004   3.1004   3.1178   3.1178
     3.1881   3.1881   3.1897   3.1897   3.1922   3.1922   3.1933   3.1933
     3.2535   3.2535   3.2584   3.2584   3.2635   3.2635   3.2713   3.2713
     3.2890   3.2890   3.3061   3.3061   3.3465   3.3465   3.3925   3.3925
     3.3956   3.3956   3.4035   3.4035   3.4246   3.4246   3.4431   3.4431
     3.4521   3.4521   3.4698   3.4698   3.4893   3.4893   3.5055   3.5055
     3.5208   3.5208   3.5663   3.5663   3.5689   3.5689   3.5956   3.5956
     3.6133   3.6133   3.6241   3.6241   3.6314   3.6314   3.6460   3.6460
     3.6558   3.6558   3.6656   3.6656   3.6814   3.6814   3.6903   3.6903
     3.7008   3.7008   3.7062   3.7062   3.7093   3.7093   3.7352   3.7352
     3.7394   3.7394   3.7604   3.7604   3.7635   3.7635   3.7644   3.7644
     3.7905   3.7905   3.8034   3.8034   3.8254   3.8254   3.8369   3.8369
     3.8478   3.8478   3.8671   3.8671   3.8677   3.8677   3.8793   3.8793
     3.8953   3.8953   3.9047   3.9047   3.9240   3.9240   3.9311   3.9311
     3.9314   3.9314   3.9581   3.9581   3.9646   3.9646   3.9774   3.9774
     3.9797   3.9797   4.0002   4.0002   4.0229   4.0229   4.0259   4.0259
     4.0307   4.0307   4.0589   4.0590   4.0721   4.0721   4.0801   4.0802
     4.0812   4.0812   4.0884   4.0884   4.1192   4.1192   4.1245   4.1245
     4.1346   4.1346   4.1623   4.1623   4.1644   4.1644   4.1690   4.1690
     4.1941   4.1941   4.1958   4.1958   4.2199   4.2199   4.2373   4.2373
     4.2537   4.2538   4.2551   4.2552   4.2586   4.2586   4.2765   4.2765
     4.2815   4.2815   4.2851   4.2851   4.3004   4.3004   4.3026   4.3026
     4.3094   4.3094   4.3141   4.3141   4.3242   4.3242   4.3315   4.3315
     4.3401   4.3401   4.3444   4.3444   4.3668   4.3668   4.3849   4.3849
     4.3850   4.3850   4.4027   4.4027   4.4056   4.4056   4.4060   4.4060
     4.4259   4.4259   4.4617   4.4617   4.4710   4.4710   4.4761   4.4762
     4.4928   4.4928   4.5075   4.5075   4.5081   4.5081   4.5333   4.5333
     4.5342   4.5342   4.5362   4.5362   4.5379   4.5380   4.5482   4.5482
     4.5620   4.5620   4.5783   4.5784   4.5836   4.5836   4.5894   4.5894
     4.6079   4.6079   4.6132   4.6132   4.6263   4.6263   4.6369   4.6369
     4.6493   4.6493   4.6501   4.6501   4.6744   4.6744   4.6932   4.6932
     4.7034   4.7034   4.7124   4.7124   4.7300   4.7300   4.7365   4.7365
     4.7508   4.7508   4.7818   4.7818   4.7860   4.7860   4.8010   4.8010
     4.8180   4.8180   4.8204   4.8204   4.8609   4.8609   4.8658   4.8658
     4.8700   4.8700   4.8725   4.8725   4.8885   4.8885   4.8905   4.8905
     4.9234   4.9234   4.9282   4.9282   4.9389   4.9389   4.9428   4.9428
     4.9737   4.9738   4.9952   4.9952   4.9956   4.9956   5.0201   5.0201
     5.0238   5.0238   5.0301   5.0301   5.0382   5.0382   5.0392   5.0392
     5.0652   5.0652   5.0764   5.0764   5.0938   5.0938   5.1044   5.1044
     5.1221   5.1221   5.1240   5.1240   5.1299   5.1299   5.1492   5.1492
     5.1511   5.1511   5.1540   5.1540   5.1543   5.1543   5.1671   5.1671
     5.1785   5.1785   5.1855   5.1855   5.1862   5.1862   5.1966   5.1966
     5.2073   5.2073   5.2187   5.2187   5.2289   5.2289   5.2292   5.2292
     5.2309   5.2309   5.2444   5.2444   5.2666   5.2666   5.2717   5.2717
     5.2864   5.2864   5.2939   5.2939   5.3011   5.3011   5.3045   5.3045
     5.3255   5.3255   5.3329   5.3329   5.3362   5.3362   5.3417   5.3417
     5.3730   5.3730   5.4061   5.4061   5.4300   5.4301   5.4392   5.4392
     5.4702   5.4702   5.4720   5.4720   5.5031   5.5031   5.5070   5.5070
     5.5670   5.5670   5.5755   5.5755   5.6192   5.6192   5.6198   5.6198
     5.7270   5.7270   5.7711   5.7711   5.8460   5.8460   5.9390   5.9390
     5.9421   5.9421   6.1609   6.1609   6.1928   6.1928   6.3117   6.3117
     6.5075   6.5076   6.5227   6.5227   6.5238   6.5238   6.5937   6.5937
     6.7249   6.7249   6.8150   6.8150   6.8886   6.8886   7.1259   7.1259
     7.1758   7.1758   7.2337   7.2337   7.2911   7.2911   7.3173   7.3173
     7.5267   7.5267   7.5885   7.5885   7.6841   7.6841   7.8109   7.8109
     7.8131   7.8131   7.9098   7.9098   8.0556   8.0556   8.0791   8.0791
     8.0963   8.0963   8.2766   8.2766   8.2856   8.2856   8.3596   8.3596
     8.3751   8.3751   8.5380   8.5380   8.5795   8.5795   8.6025   8.6025
     8.7135   8.7135   9.0233   9.0233   9.0464   9.0464   9.0470   9.0470
     9.0608   9.0608   9.1347   9.1347   9.1762   9.1762   9.1830   9.1830
     9.2898   9.2898   9.3261   9.3261   9.4208   9.4209   9.4986   9.4986
     9.5026   9.5026   9.5090   9.5090   9.5193   9.5193   9.5640   9.5640
     9.5951   9.5951   9.6113   9.6113   9.6946   9.6946   9.7555   9.7555
     9.9056   9.9056   9.9143   9.9143   9.9144   9.9144  10.4642  10.4642
    10.4858  10.4858  10.5018  10.5018  10.5344  10.5344  10.5633  10.5633
    10.5754  10.5754  10.5836  10.5836  10.6310  10.6310  10.6524  10.6524
    10.6740  10.6740  10.7236  10.7236  10.9709  10.9709  10.9837  10.9837
    11.0621  11.0621  11.2951  11.2951  11.3504  11.3504  11.4298  11.4298
    11.4813  11.4813  11.4995  11.4995  11.5564  11.5564  11.5717  11.5717
    11.6585  11.6585  11.6859  11.6859  11.7623  11.7623  11.8048  11.8048
    11.8647  11.8647  11.8781  11.8781  11.9517  11.9517  12.0098  12.0098
    12.0184  12.0184  12.0254  12.0254  12.0840  12.0840  12.1831  12.1831
    12.1854  12.1854  12.3516  12.3516  12.3998  12.3999  12.4011  12.4011
    12.4925  12.4925  12.5967  12.5967  12.6325  12.6325  12.6497  12.6497
    12.6651  12.6651  12.8044  12.8044  12.8700  12.8700  12.8840  12.8840
    12.9168  12.9168  12.9978  12.9978  13.0240  13.0241  13.0422  13.0422
    13.1526  13.1526  13.1734  13.1734  13.2393  13.2393  13.2651  13.2651
    13.2763  13.2763  13.3176  13.3176  13.6203  13.6204  13.6261  13.6261
    13.6627  13.6627  13.6942  13.6942  13.7394  13.7394  13.7957  13.7957
    13.8377  13.8377  13.8517  13.8517  13.9575  13.9575  13.9841  13.9841
    14.0852  14.0852  14.0998  14.0998  14.2153  14.2153  14.3864  14.3864
    14.4713  14.4712  14.4869  14.4869  14.4919  14.4919  14.5387  14.5387
    14.5593  14.5593  14.6414  14.6414  14.6730  14.6730  14.7454  14.7454
    14.7455  14.7455  14.7667  14.7668  14.7718  14.7719  14.7819  14.7819
    14.7868  14.7868  14.8252  14.8253  14.9067  14.9067  14.9381  14.9382
    15.0039  15.0039  15.0103  15.0104  15.0210  15.0211  15.0618  15.0616
    15.0643  15.0643  15.1269  15.1268  15.1616  15.1617  15.1834  15.1833
    15.2138  15.2139  15.2649  15.2651  15.2877  15.2878  15.3465  15.3464
    15.4501  15.4501

     occupation numbers 
     1.0000   1.0000   1.0000   1.0000   1.0000   1.0000   1.0000   1.0000
     1.0000   1.0000   1.0000   1.0000   1.0000   1.0000   1.0000   1.0000
     1.0000   1.0000   1.0000   1.0000   1.0000   1.0000   1.0000   1.0000
     1.0000   1.0000   1.0000   1.0000   1.0000   1.0000   1.0000   1.0000
     1.0000   1.0000   1.0000   1.0000   1.0000   1.0000   1.0000   1.0000
     1.0000   1.0000   1.0000   1.0000   1.0000   1.0000   1.0000   1.0000
     1.0000   1.0000   1.0000   1.0000   1.0000   1.0000   1.0000   1.0000
     1.0000   1.0000   1.0000   1.0000   1.0000   1.0000   1.0000   1.0000
     1.0000   1.0000   1.0000   1.0000   1.0000   1.0000   1.0000   1.0000
     1.0000   1.0000   1.0000   1.0000   1.0000   1.0000   1.0000   1.0000
     1.0000   1.0000   1.0000   1.0000   1.0000   1.0000   1.0000   1.0000
     1.0000   1.0000   1.0000   1.0000   1.0000   1.0000   1.0000   1.0000
     1.0000   1.0000   1.0000   1.0000   1.0000   1.0000   1.0000   1.0000
     1.0000   1.0000   1.0000   1.0000   1.0000   1.0000   1.0000   1.0000
     1.0000   1.0000   1.0000   1.0000   1.0000   1.0000   1.0000   1.0000
     1.0000   1.0000   1.0000   1.0000   1.0000   1.0000   1.0000   1.0000
     1.0000   1.0000   1.0000   1.0000   1.0000   1.0000   1.0000   1.0000
     1.0000   1.0000   1.0000   1.0000   1.0000   1.0000   1.0000   1.0000
     1.0000   1.0000   1.0000   1.0000   1.0000   1.0000   1.0000   1.0000
     1.0000   1.0000   1.0000   1.0000   1.0000   1.0000   1.0000   1.0000
     1.0000   1.0000   1.0000   1.0000   1.0000   1.0000   1.0000   1.0000
     1.0000   1.0000   1.0000   1.0000   1.0000   1.0000   1.0000   1.0000
     1.0000   1.0000   1.0000   1.0000   1.0000   1.0000   1.0000   1.0000
     1.0000   1.0000   1.0000   1.0000   1.0000   1.0000   1.0000   1.0000
     1.0000   1.0000   1.0000   1.0000   1.0000   1.0000   1.0000   1.0000
     1.0000   1.0000   1.0000   1.0000   1.0000   1.0000   1.0000   1.0000
     1.0000   1.0000   1.0000   1.0000   1.0000   1.0000   1.0000   1.0000
     1.0000   1.0000   1.0000   1.0000   1.0000   1.0000   1.0000   1.0000
     1.0000   1.0000   1.0000   1.0000   1.0000   1.0000   1.0000   1.0000
     1.0000   1.0000   1.0000   1.0000   1.0000   1.0000   1.0000   1.0000
     1.0000   1.0000   1.0000   1.0000   1.0000   1.0000   1.0000   1.0000
     1.0000   1.0000   1.0000   1.0000   1.0000   1.0000   1.0000   1.0000
     1.0000   1.0000   1.0000   1.0000   1.0000   1.0000   1.0000   1.0000
     1.0000   1.0000   1.0000   1.0000   1.0000   1.0000   1.0000   1.0000
     1.0000   1.0000   1.0000   1.0000   1.0000   1.0000   1.0000   1.0000
     1.0000   1.0000   1.0000   1.0000   1.0000   1.0000   1.0000   1.0000
     1.0000   1.0000   1.0000   1.0000   1.0000   1.0000   1.0000   1.0000
     1.0000   1.0000   1.0000   1.0000   1.0000   1.0000   1.0000   1.0000
     1.0000   1.0000   1.0000   1.0000   1.0000   1.0000   1.0000   1.0000
     1.0000   1.0000   1.0000   1.0000   1.0000   1.0000   1.0000   1.0000
     1.0000   1.0000   1.0000   1.0000   1.0000   1.0000   1.0000   1.0000
     1.0000   1.0000   1.0000   1.0000   1.0000   1.0000   1.0000   1.0000
     1.0000   1.0000   1.0000   1.0000   1.0000   1.0000   1.0000   1.0000
     1.0000   1.0000   1.0000   1.0000   1.0000   1.0000   1.0000   1.0000
     1.0000   1.0000   1.0000   1.0000   1.0000   1.0000   1.0000   1.0000
     1.0000   1.0000   1.0000   1.0000   1.0000   1.0000   1.0000   1.0000
     1.0000   1.0000   1.0000   1.0000   1.0000   1.0000   1.0000   1.0000
     1.0000   1.0000   1.0000   1.0000   1.0000   1.0000   1.0000   1.0000
     1.0000   1.0000   1.0000   1.0000   1.0000   1.0000   1.0000   1.0000
     1.0000   1.0000   1.0000   1.0000   1.0000   1.0000   1.0000   1.0000
     1.0000   1.0000   1.0000   1.0000   1.0000   1.0000   1.0000   1.0000
     1.0000   1.0000   1.0000   1.0000   1.0000   1.0000   1.0000   1.0000
     1.0000   1.0000   1.0000   1.0000   1.0000   1.0000   1.0000   1.0000
     1.0000   1.0000   1.0000   1.0000   1.0000   1.0000   1.0000   1.0000
     1.0000   1.0000   1.0000   1.0000   1.0000   1.0000   1.0000   1.0000
     1.0000   1.0000   1.0000   1.0000   1.0000   1.0000   1.0000   1.0000
     1.0000   1.0000   1.0000   1.0000   1.0000   1.0000   1.0000   1.0000
     1.0000   1.0000   1.0000   1.0000   1.0000   1.0000   1.0000   1.0000
     1.0000   1.0000   1.0000   1.0000   1.0000   1.0000   1.0000   1.0000
     1.0000   1.0000   1.0000   1.0000   1.0000   1.0000   1.0000   1.0000
     1.0000   1.0000   1.0000   1.0000   1.0000   1.0000   1.0000   1.0000
     1.0000   1.0000   1.0000   1.0000   1.0000   1.0000   1.0000   1.0000
     1.0000   1.0000   1.0000   1.0000   1.0000   1.0000   1.0000   1.0000
     1.0000   1.0000   1.0000   1.0000   1.0000   1.0000   1.0000   1.0000
     1.0000   1.0000   1.0000   1.0000   1.0000   1.0000   1.0000   1.0000
     1.0000   1.0000   1.0000   1.0000   1.0000   1.0000   1.0000   1.0000
     1.0000   1.0000   1.0000   1.0000   1.0000   1.0000   1.0000   1.0000
     1.0000   1.0000   1.0000   1.0000   1.0000   1.0000   1.0000   1.0000
     1.0000   1.0000   1.0000   1.0000   1.0000   1.0000   1.0000   1.0000
     1.0000   1.0000   1.0000   1.0000   1.0000   1.0000   1.0000   1.0000
     1.0000   1.0000   1.0000   1.0000   1.0000   1.0000   1.0000   1.0000
     1.0000   1.0000   1.0000   1.0000   1.0000   1.0000   1.0000   1.0000
     1.0000   1.0000   1.0000   1.0000   1.0000   1.0000   1.0000   1.0000
     1.0000   1.0000   1.0000   1.0000   1.0000   1.0000   1.0000   1.0000
     1.0000   1.0000   1.0000   1.0000   1.0000   1.0000   1.0000   1.0000
     1.0000   1.0000   1.0000   1.0000   1.0000   1.0000   1.0000   1.0000
     1.0000   1.0000   1.0000   1.0000   1.0000   1.0000   1.0000   1.0000
     1.0000   1.0000   1.0000   1.0000   1.0000   1.0000   1.0000   1.0000
     1.0000   1.0000   1.0000   1.0000   1.0000   1.0000   1.0000   1.0000
     1.0000   1.0000   1.0000   1.0000   1.0000   1.0000   1.0000   1.0000
     1.0000   1.0000   1.0000   1.0000   1.0000   1.0000   1.0000   1.0000
     1.0000   1.0000   1.0000   1.0000   1.0000   1.0000   1.0000   1.0000
     1.0000   1.0000   1.0000   1.0000   1.0000   1.0000   1.0000   1.0000
     1.0000   1.0000   1.0000   1.0000   1.0000   1.0000   1.0000   1.0000
     1.0000   1.0000   1.0000   1.0000   1.0000   1.0000   1.0000   1.0000
     1.0000   1.0000   1.0000   1.0000   1.0000   1.0000   1.0000   1.0000
     1.0000   1.0000   1.0000   1.0000   1.0000   1.0000   1.0000   1.0000
     1.0000   1.0000   1.0000   1.0000   1.0000   1.0000   1.0000   1.0000
     1.0000   1.0000   1.0000   1.0000   1.0000   1.0000   1.0000   1.0000
     1.0000   1.0000   1.0000   1.0000   1.0000   1.0000   1.0000   1.0000
     1.0000   1.0000   1.0000   1.0000   1.0000   1.0000   1.0000   1.0000
     1.0000   1.0000   1.0000   1.0000   1.0000   1.0000   1.0000   1.0000
     1.0000   1.0000   1.0000   1.0000   1.0000   1.0000   1.0000   1.0000
     1.0000   1.0000   1.0000   1.0000   1.0000   1.0000   1.0000   1.0000
     1.0000   1.0000   1.0000   1.0000   1.0000   1.0000   1.0000   1.0000
     1.0000   1.0000   1.0000   1.0000   1.0000   1.0000   1.0000   1.0000
     1.0000   1.0000   1.0000   1.0000   1.0000   1.0000   1.0000   1.0000
     1.0000   1.0000   1.0000   1.0000   1.0000   1.0000   1.0000   1.0000
     1.0000   1.0000   1.0000   1.0000   1.0000   1.0000   1.0000   1.0000
     1.0000   1.0000   1.0000   1.0000   1.0000   1.0000   1.0000   1.0000
     1.0000   1.0000   1.0000   1.0000   1.0000   1.0000   1.0000   1.0000
     1.0000   1.0000   1.0000   1.0000   1.0000   1.0000   1.0000   1.0000
     1.0000   1.0000   1.0000   1.0000   1.0000   1.0000   1.0000   1.0000
     1.0000   1.0000   1.0000   1.0000   1.0000   1.0000   1.0000   1.0000
     1.0000   1.0000   1.0000   1.0000   1.0000   1.0000   1.0000   1.0000
     1.0000   1.0000   1.0000   1.0000   1.0000   1.0000   1.0000   1.0000
     1.0000   1.0000   1.0000   1.0000   1.0000   1.0000   1.0000   1.0000
     1.0000   1.0000   1.0000   1.0000   1.0000   1.0000   1.0000   1.0000
     1.0000   1.0000   1.0000   1.0000   1.0000   1.0000   1.0000   1.0000
     1.0000   1.0000   1.0000   1.0000   1.0000   1.0000   1.0000   1.0000
     1.0000   1.0000   1.0000   1.0000   1.0000   1.0000   1.0000   1.0000
     1.0000   1.0000   1.0000   1.0000   1.0000   1.0000   1.0000   1.0000
     1.0000   1.0000   1.0000   1.0000   1.0000   1.0000   1.0000   1.0000
     1.0000   1.0000   1.0000   1.0000   1.0000   1.0000   1.0000   1.0000
     1.0000   1.0000   1.0000   1.0000   1.0000   1.0000   1.0000   1.0000
     1.0000   1.0000   1.0000   1.0000   1.0000   1.0000   1.0000   1.0000
     1.0000   1.0000   1.0000   1.0000   1.0000   1.0000   1.0000   1.0000
     1.0000   1.0000   1.0000   1.0000   1.0000   1.0000   1.0000   1.0000
     1.0000   1.0000   1.0000   1.0000   1.0000   1.0000   1.0000   1.0000
     1.0000   1.0000   1.0000   1.0000   1.0000   1.0000   1.0000   1.0000
     1.0000   1.0000   1.0000   1.0000   1.0000   1.0000   1.0000   1.0000
     1.0000   1.0000   1.0000   1.0000   1.0000   1.0000   1.0000   1.0000
     1.0000   1.0000   1.0000   1.0000   1.0000   1.0000   1.0000   1.0000
     1.0000   1.0000   1.0000   1.0000   1.0000   1.0000   1.0000   1.0000
     1.0000   1.0000   1.0000   1.0000   1.0000   1.0000   1.0000   1.0000
     1.0000   1.0000   1.0000   1.0000   1.0000   1.0000   1.0000   1.0000
     1.0000   1.0000   1.0000   1.0000   1.0000   1.0000   1.0000   1.0000
     1.0000   1.0000   1.0000   1.0000   1.0000   1.0000   1.0000   1.0000
     1.0000   1.0000   1.0000   1.0000   1.0000   1.0000   1.0000   1.0000
     1.0000   1.0000   1.0000   1.0000   1.0000   1.0000   1.0000   1.0000
     1.0000   1.0000   1.0000   1.0000   1.0000   1.0000   1.0000   1.0000
     1.0000   1.0000   1.0000   1.0000   1.0000   1.0000   1.0000   1.0000
[...]
     atom   67 type  1   force =  -212.51440288   31.94476862   -0.00006162
     atom   68 type  1   force =  -212.51454638  -31.94451629    0.00006903
     atom   69 type  1   force =  -115.65775493 -115.65778824    0.00002535
     atom   70 type  1   force =   -96.61961710 -198.62260209    0.00002005
     atom   71 type  1   force =  -198.62241229  -96.61974335    0.00004286
     atom   72 type  1   force =  -160.06167648 -160.06166670    0.00003234
     The core correction contribution to forces
     atom    1 type  1   force =     0.00911658    0.00911445    0.00000520
     atom    2 type  1   force =     0.01571429   -0.00193087    0.00000015
     atom    3 type  1   force =    -0.00192553    0.01570710   -0.00000354
     atom    4 type  1   force =    -0.00268568   -0.00268624   -0.00000222
     atom    5 type  1   force =     0.01547631    0.00014253   -0.00000170
     atom    6 type  1   force =     0.01548324   -0.00013982   -0.00000159
     atom    7 type  1   force =    -0.00140349    0.00006068   -0.00000558
     atom    8 type  1   force =    -0.00141336   -0.00005030    0.00000032
     atom    9 type  1   force =     0.01572508    0.00192588    0.00000011
     atom   10 type  1   force =     0.00911427   -0.00912547    0.00000057
     atom   11 type  1   force =    -0.00269045    0.00270423    0.00000220
     atom   12 type  1   force =    -0.00192392   -0.01571210    0.00000122
     atom   13 type  1   force =     0.00015478    0.01549096   -0.00000470
     atom   14 type  1   force =     0.00005046   -0.00138787    0.00000045
     atom   15 type  1   force =    -0.00014460    0.01547747   -0.00000390
     atom   16 type  1   force =    -0.00005718   -0.00142567   -0.00000553
     atom   17 type  1   force =    -0.00044796   -0.00044265   -0.00000590
     atom   18 type  1   force =    -0.00045635    0.00044465   -0.00000544
     atom   19 type  1   force =     0.00046116   -0.00045087    0.00000463
     atom   20 type  1   force =     0.00044459    0.00043968   -0.00000238
     atom   21 type  1   force =     0.00004877    0.00142760    0.00000575
     atom   22 type  1   force =     0.00013636   -0.01547732    0.00000157
     atom   23 type  1   force =    -0.00005546    0.00139831   -0.00000356
     atom   24 type  1   force =    -0.00015346   -0.01548987   -0.00000251
     atom   25 type  1   force =     0.00192968    0.01571982   -0.00000042
     atom   26 type  1   force =     0.00269632   -0.00269491    0.00000553
     atom   27 type  1   force =    -0.00911396    0.00912393   -0.00000184
     atom   28 type  1   force =    -0.01571017   -0.00192584    0.00000756
     atom   29 type  1   force =     0.00141069    0.00004197    0.00000145
     atom   30 type  1   force =     0.00141182   -0.00005597    0.00000580
     atom   31 type  1   force =    -0.01548668    0.00012785   -0.00000024
     atom   32 type  1   force =    -0.01547723   -0.00014616    0.00001158
     atom   33 type  1   force =     0.00268152    0.00269026   -0.00000027
     atom   34 type  1   force =     0.00193389   -0.01570885    0.00000561
     atom   35 type  1   force =    -0.01570097    0.00192643    0.00000261
     atom   36 type  1   force =    -0.00911017   -0.00910591    0.00000777
     atom   37 type  1   force =     0.00911298    0.00911183   -0.00000085
     atom   38 type  1   force =     0.01570899   -0.00191953   -0.00000135
     atom   39 type  1   force =    -0.00192328    0.01570001    0.00000162
     atom   40 type  1   force =    -0.00269007   -0.00269455    0.00000428
     atom   41 type  1   force =     0.01547691    0.00014574    0.00000198
     atom   42 type  1   force =     0.01547851   -0.00013168   -0.00000103
     atom   43 type  1   force =    -0.00142567    0.00004908    0.00000676
     atom   44 type  1   force =    -0.00140715   -0.00005017    0.00000081
     atom   45 type  1   force =     0.01571892    0.00192726   -0.00000417
     atom   46 type  1   force =     0.00911523   -0.00910946    0.00000247
     atom   47 type  1   force =    -0.00269086    0.00269080    0.00000043
     atom   48 type  1   force =    -0.00192012   -0.01573199   -0.00000054
     atom   49 type  1   force =     0.00014714    0.01549305   -0.00000822
     atom   50 type  1   force =     0.00005479   -0.00139388   -0.00000138
     atom   51 type  1   force =    -0.00015032    0.01548190    0.00000322
     atom   52 type  1   force =    -0.00006477   -0.00142488   -0.00000521
     atom   53 type  1   force =    -0.00045253   -0.00045043   -0.00000385
     atom   54 type  1   force =    -0.00044951    0.00046068    0.00000768
     atom   55 type  1   force =     0.00045417   -0.00045230    0.00000924
     atom   56 type  1   force =     0.00045829    0.00043968    0.00000395
     atom   57 type  1   force =     0.00004825    0.00142643    0.00000278
     atom   58 type  1   force =     0.00012991   -0.01547229    0.00000506
     atom   59 type  1   force =    -0.00005026    0.00139326   -0.00000700
     atom   60 type  1   force =    -0.00015596   -0.01548335    0.00000207
     atom   61 type  1   force =     0.00192746    0.01572023   -0.00000919
     atom   62 type  1   force =     0.00269239   -0.00269409    0.00000450
     atom   63 type  1   force =    -0.00912075    0.00912133   -0.00000875
     atom   64 type  1   force =    -0.01571774   -0.00192580   -0.00000281
     atom   65 type  1   force =     0.00140845    0.00004527   -0.00001247
     atom   66 type  1   force =     0.00141820   -0.00005326   -0.00000441
     atom   67 type  1   force =    -0.01548377    0.00013579   -0.00000429
     atom   68 type  1   force =    -0.01548323   -0.00014698   -0.00000038
     atom   69 type  1   force =     0.00269022    0.00268924    0.00000167
     atom   70 type  1   force =     0.00193065   -0.01571677    0.00000285
     atom   71 type  1   force =    -0.01570241    0.00192405    0.00000167
     atom   72 type  1   force =    -0.00910854   -0.00910410    0.00000187
     The Hubbard contrib.    to forces
     atom    1 type  1   force =     0.00000000    0.00000000    0.00000000
     atom    2 type  1   force =     0.00000000    0.00000000    0.00000000
     atom    3 type  1   force =     0.00000000    0.00000000    0.00000000
     atom    4 type  1   force =     0.00000000    0.00000000    0.00000000
     atom    5 type  1   force =     0.00000000    0.00000000    0.00000000
     atom    6 type  1   force =     0.00000000    0.00000000    0.00000000
     atom    7 type  1   force =     0.00000000    0.00000000    0.00000000
     atom    8 type  1   force =     0.00000000    0.00000000    0.00000000
     atom    9 type  1   force =     0.00000000    0.00000000    0.00000000
     atom   10 type  1   force =     0.00000000    0.00000000    0.00000000
     atom   11 type  1   force =     0.00000000    0.00000000    0.00000000
     atom   12 type  1   force =     0.00000000    0.00000000    0.00000000
     atom   13 type  1   force =     0.00000000    0.00000000    0.00000000
     atom   14 type  1   force =     0.00000000    0.00000000    0.00000000
     atom   15 type  1   force =     0.00000000    0.00000000    0.00000000
     atom   16 type  1   force =     0.00000000    0.00000000    0.00000000
     atom   17 type  1   force =     0.00000000    0.00000000    0.00000000
     atom   18 type  1   force =     0.00000000    0.00000000    0.00000000
     atom   19 type  1   force =     0.00000000    0.00000000    0.00000000
     atom   20 type  1   force =     0.00000000    0.00000000    0.00000000
     atom   21 type  1   force =     0.00000000    0.00000000    0.00000000
     atom   22 type  1   force =     0.00000000    0.00000000    0.00000000
     atom   23 type  1   force =     0.00000000    0.00000000    0.00000000
     atom   24 type  1   force =     0.00000000    0.00000000    0.00000000
     atom   25 type  1   force =     0.00000000    0.00000000    0.00000000
     atom   26 type  1   force =     0.00000000    0.00000000    0.00000000
     atom   27 type  1   force =     0.00000000    0.00000000    0.00000000
     atom   28 type  1   force =     0.00000000    0.00000000    0.00000000
     atom   29 type  1   force =     0.00000000    0.00000000    0.00000000
     atom   30 type  1   force =     0.00000000    0.00000000    0.00000000
     atom   31 type  1   force =     0.00000000    0.00000000    0.00000000
     atom   32 type  1   force =     0.00000000    0.00000000    0.00000000
     atom   33 type  1   force =     0.00000000    0.00000000    0.00000000
     atom   34 type  1   force =     0.00000000    0.00000000    0.00000000
     atom   35 type  1   force =     0.00000000    0.00000000    0.00000000
     atom   36 type  1   force =     0.00000000    0.00000000    0.00000000
     atom   37 type  1   force =     0.00000000    0.00000000    0.00000000
     atom   38 type  1   force =     0.00000000    0.00000000    0.00000000
     atom   39 type  1   force =     0.00000000    0.00000000    0.00000000
     atom   40 type  1   force =     0.00000000    0.00000000    0.00000000
     atom   41 type  1   force =     0.00000000    0.00000000    0.00000000
     atom   42 type  1   force =     0.00000000    0.00000000    0.00000000
     atom   43 type  1   force =     0.00000000    0.00000000    0.00000000
     atom   44 type  1   force =     0.00000000    0.00000000    0.00000000
     atom   45 type  1   force =     0.00000000    0.00000000    0.00000000
     atom   46 type  1   force =     0.00000000    0.00000000    0.00000000
     atom   47 type  1   force =     0.00000000    0.00000000    0.00000000
     atom   48 type  1   force =     0.00000000    0.00000000    0.00000000
     atom   49 type  1   force =     0.00000000    0.00000000    0.00000000
     atom   50 type  1   force =     0.00000000    0.00000000    0.00000000
     atom   51 type  1   force =     0.00000000    0.00000000    0.00000000
     atom   52 type  1   force =     0.00000000    0.00000000    0.00000000
     atom   53 type  1   force =     0.00000000    0.00000000    0.00000000
     atom   54 type  1   force =     0.00000000    0.00000000    0.00000000
     atom   55 type  1   force =     0.00000000    0.00000000    0.00000000
     atom   56 type  1   force =     0.00000000    0.00000000    0.00000000
     atom   57 type  1   force =     0.00000000    0.00000000    0.00000000
     atom   58 type  1   force =     0.00000000    0.00000000    0.00000000
     atom   59 type  1   force =     0.00000000    0.00000000    0.00000000
     atom   60 type  1   force =     0.00000000    0.00000000    0.00000000
     atom   61 type  1   force =     0.00000000    0.00000000    0.00000000
     atom   62 type  1   force =     0.00000000    0.00000000    0.00000000
     atom   63 type  1   force =     0.00000000    0.00000000    0.00000000
     atom   64 type  1   force =     0.00000000    0.00000000    0.00000000
     atom   65 type  1   force =     0.00000000    0.00000000    0.00000000
     atom   66 type  1   force =     0.00000000    0.00000000    0.00000000
     atom   67 type  1   force =     0.00000000    0.00000000    0.00000000
     atom   68 type  1   force =     0.00000000    0.00000000    0.00000000
     atom   69 type  1   force =     0.00000000    0.00000000    0.00000000
     atom   70 type  1   force =     0.00000000    0.00000000    0.00000000
     atom   71 type  1   force =     0.00000000    0.00000000    0.00000000
     atom   72 type  1   force =     0.00000000    0.00000000    0.00000000
     The SCF correction term to forces
     atom    1 type  1   force =     0.02973586    0.02966792   -0.00000235
     atom    2 type  1   force =     0.08655604    0.01531363    0.00000096
     atom    3 type  1   force =     0.01531626    0.08647706    0.00001563
     atom    4 type  1   force =     0.05376920    0.05370966    0.00004887
     atom    5 type  1   force =     0.11254982    0.00613697    0.00006247
     atom    6 type  1   force =     0.11258220   -0.00582971    0.00000880
     atom    7 type  1   force =     0.07364606    0.01755552   -0.00006928
     atom    8 type  1   force =     0.07366201   -0.01722347    0.00003624
     atom    9 type  1   force =     0.08669581   -0.01518415    0.00001725
     atom   10 type  1   force =     0.02981172   -0.02970002   -0.00001009
     atom   11 type  1   force =     0.05361568   -0.05357312   -0.00003807
     atom   12 type  1   force =     0.01522137   -0.08657677    0.00001743
     atom   13 type  1   force =     0.00609606    0.11250434    0.00001445
     atom   14 type  1   force =     0.01759889    0.07364608    0.00003119
     atom   15 type  1   force =    -0.00592018    0.11242765    0.00003764
     atom   16 type  1   force =    -0.01729621    0.07367216   -0.00006023
     atom   17 type  1   force =     0.02476674    0.02466232    0.00002406
     atom   18 type  1   force =     0.02457253   -0.02455411   -0.00001022
     atom   19 type  1   force =    -0.02464393    0.02445646   -0.00011744
     atom   20 type  1   force =    -0.02474815   -0.02471195   -0.00002027
     atom   21 type  1   force =     0.01719760   -0.07358568    0.00003633
     atom   22 type  1   force =     0.00593554   -0.11248933   -0.00006465
     atom   23 type  1   force =    -0.01766889   -0.07360107   -0.00008834
     atom   24 type  1   force =    -0.00619589   -0.11244508   -0.00001644
     atom   25 type  1   force =    -0.01528019    0.08663622    0.00000564
     atom   26 type  1   force =    -0.05366945    0.05354927   -0.00004052
     atom   27 type  1   force =    -0.02978582    0.02973953    0.00003209
     atom   28 type  1   force =    -0.08671404    0.01523365    0.00006250
     atom   29 type  1   force =    -0.07379439    0.01716111    0.00004691
     atom   30 type  1   force =    -0.07369164   -0.01755150   -0.00006812
     atom   31 type  1   force =    -0.11249493    0.00584051   -0.00005689
     atom   32 type  1   force =    -0.11244516   -0.00609274    0.00002317
     atom   33 type  1   force =    -0.05374864   -0.05366898   -0.00000699
     atom   34 type  1   force =    -0.01524753   -0.08646115   -0.00000917
     atom   35 type  1   force =    -0.08653692   -0.01525727   -0.00003315
     atom   36 type  1   force =    -0.02968351   -0.02957371    0.00002714
     atom   37 type  1   force =     0.02982750    0.02966124   -0.00001169
     atom   38 type  1   force =     0.08650911    0.01527679   -0.00001344
     atom   39 type  1   force =     0.01531932    0.08641967   -0.00002341
     atom   40 type  1   force =     0.05372419    0.05367519   -0.00000128
     atom   41 type  1   force =     0.11248867    0.00615811    0.00002113
     atom   42 type  1   force =     0.11257180   -0.00580945    0.00001033
     atom   43 type  1   force =     0.07365240    0.01751724    0.00003792
     atom   44 type  1   force =     0.07358421   -0.01721498   -0.00003319
     atom   45 type  1   force =     0.08672105   -0.01519998    0.00000443
     atom   46 type  1   force =     0.02980747   -0.02975907   -0.00002920
     atom   47 type  1   force =     0.05363201   -0.05355258    0.00004675
     atom   48 type  1   force =     0.01519637   -0.08659480    0.00001107
     atom   49 type  1   force =     0.00611713    0.11244549   -0.00006026
     atom   50 type  1   force =     0.01760970    0.07363469    0.00006173
     atom   51 type  1   force =    -0.00597621    0.11243474    0.00001674
     atom   52 type  1   force =    -0.01732759    0.07355302    0.00002556
     atom   53 type  1   force =     0.02474049    0.02465331    0.00002478
     atom   54 type  1   force =     0.02468775   -0.02456242    0.00005097
     atom   55 type  1   force =    -0.02466709    0.02451480    0.00006210
     atom   56 type  1   force =    -0.02484444   -0.02477295    0.00002443
     atom   57 type  1   force =     0.01717264   -0.07346902   -0.00001995
     atom   58 type  1   force =     0.00584180   -0.11252374   -0.00007487
     atom   59 type  1   force =    -0.01763123   -0.07363403    0.00003463
     atom   60 type  1   force =    -0.00621907   -0.11250729    0.00001533
     atom   61 type  1   force =    -0.01525105    0.08652741   -0.00000463
     atom   62 type  1   force =    -0.05374423    0.05362100    0.00004862
     atom   63 type  1   force =    -0.02979292    0.02969766   -0.00001746
     atom   64 type  1   force =    -0.08673079    0.01517587   -0.00002061
     atom   65 type  1   force =    -0.07367264    0.01722583    0.00000621
     atom   66 type  1   force =    -0.07374464   -0.01751946    0.00009589
     atom   67 type  1   force =    -0.11255652    0.00575842    0.00003969
     atom   68 type  1   force =    -0.11240309   -0.00609111   -0.00006391
     atom   69 type  1   force =    -0.05369410   -0.05366357   -0.00000956
     atom   70 type  1   force =    -0.01529616   -0.08640691   -0.00000888
     atom   71 type  1   force =    -0.08648311   -0.01522287   -0.00002983
     atom   72 type  1   force =    -0.02965299   -0.02964013    0.00001137

     Total force =     0.105422     Total SCF correction =     0.698726
     SCF correction compared to forces is large: reduce conv_thr to get better values

     Writing all to output data dir ./calc.save/

     init_run     :     35.63s CPU     36.22s WALL (       1 calls)
     electrons    :   3898.14s CPU   3930.85s WALL (       1 calls)
     forces       :     94.60s CPU     95.34s WALL (       1 calls)

     Called by init_run:
     wfcinit      :     34.43s CPU     34.95s WALL (       1 calls)
     wfcinit:wfcr :     34.15s CPU     34.63s WALL (       2 calls)
     potinit      :      0.14s CPU      0.14s WALL (       1 calls)
     hinit0       :      0.40s CPU      0.42s WALL (       1 calls)

     Called by electrons:
     c_bands      :   3796.68s CPU   3828.36s WALL (       9 calls)
     sum_band     :    100.63s CPU    101.36s WALL (       9 calls)
     v_of_rho     :      0.50s CPU      0.51s WALL (       9 calls)
     v_h          :      0.04s CPU      0.04s WALL (       9 calls)
     v_xc         :      0.51s CPU      0.52s WALL (      10 calls)
     mix_rho      :      0.19s CPU      0.21s WALL (       9 calls)

     Called by c_bands:
     init_us_2    :      0.17s CPU      0.17s WALL (      40 calls)
     init_us_2:cp :      0.17s CPU      0.17s WALL (      40 calls)
     ccgdiagg     :   3503.03s CPU   3531.46s WALL (      22 calls)
     wfcrot       :    327.01s CPU    330.73s WALL (      20 calls)

     Called by sum_band:
     sum_band:wei :      0.02s CPU      0.02s WALL (       9 calls)
     sum_band:loo :    100.41s CPU    101.14s WALL (       9 calls)
     sum_band:buf :      0.06s CPU      0.06s WALL (      18 calls)
     sum_band:ini :      0.08s CPU      0.08s WALL (      18 calls)

     Called by *cgdiagg:
     h_psi        :   2368.67s CPU   2387.78s WALL (  119661 calls)

     Called by h_psi:
     h_psi:calbec :    747.73s CPU    756.48s WALL (  119661 calls)
     vloc_psi     :    969.42s CPU    977.19s WALL (  119661 calls)
     add_vuspsi   :    649.81s CPU    652.78s WALL (  119661 calls)
     hs_1psi      :   2089.22s CPU   2105.47s WALL (  119641 calls)
     s_1psi       :    667.33s CPU    674.66s WALL (  119641 calls)

     General routines
     calbec       :   1438.77s CPU   1455.69s WALL (  239310 calls)
     fft          :      3.57s CPU      3.61s WALL (     125 calls)
     ffts         :      0.15s CPU      0.15s WALL (      36 calls)
     fftw         :   1015.97s CPU   1023.95s WALL (  669964 calls)

     Parallel routines
     fft_scatt_xy :     41.90s CPU     42.12s WALL (  670125 calls)
     fft_scatt_yz :    731.13s CPU    737.48s WALL (  670125 calls)

     PWSCF        :      1h 8m CPU      1h 9m WALL


   This run was terminated on:   1: 6:40  24Feb2023            

=------------------------------------------------------------------------------=
   JOB DONE.
=------------------------------------------------------------------------------=
