
.Version 9.6.2 of ABINIT 
.(MPI version, prepared for a x86_64_linux_gnu10.3 computer) 

.Copyright (C) 1998-2021 ABINIT group . 
 ABINIT comes with ABSOLUTELY NO WARRANTY.
 It is free software, and you are welcome to redistribute it
 under certain conditions (GNU General Public License,
 see ~abinit/COPYING or http://www.gnu.org/copyleft/gpl.txt).

 ABINIT is a project of the Universite Catholique de Louvain,
 Corning Inc. and other collaborators, see ~abinit/doc/developers/contributors.txt .
 Please read https://docs.abinit.org/theory/acknowledgments for suggested
 acknowledgments of the ABINIT effort.
 For more information, see https://www.abinit.org .

.Starting date : Wed 14 Dec 2022.
- ( at 23h02 )
  
- input  file    -> NiC2O4.in
- output file    -> NiC2O4.out
- root for input  files -> abi
- root for output files -> abo


 Symmetries : space group P1 (#  1); Bravais aP (primitive triclinic)
================================================================================
 Values of the parameters that define the memory need of the present run
     intxc =       0    ionmov =       0      iscf =       7    lmnmax =       6
     lnmax =       6     mgfft =     180  mpssoang =       3    mqgrid =    7312
     natom =      14  nloc_mem =       1    nspden =       2   nspinor =       1
    nsppol =       2      nsym =       1    n1xccc =       0    ntypat =       3
    occopt =       3   xclevel =       2
-    mband =          65        mffmem =           1         mkmem =           1
       mpw =      204443          nfft =     4147200          nkpt =           4
================================================================================
P This job should need less than                    2437.399 Mbytes of memory.
  Rough estimation (10% accuracy) of disk space for files :
_ WF disk file :   1622.169 Mbytes ; DEN or POT disk file :     63.283 Mbytes.
================================================================================

--------------------------------------------------------------------------------
------------- Echo of variables that govern the present computation ------------
--------------------------------------------------------------------------------
-
- outvars: echo of selected default values                                      
-   iomode0 =  0 , fftalg0 =312 , wfoptalg0 =  0
-
- outvars: echo of global parameters not present in the input file              
-  max_nthreads =    0
-
 -outvars: echo values of preprocessed input variables --------
            acell      1.0400000000E+00  1.0400000000E+00  1.0400000000E+00 Bohr
              amu      5.86900000E+01  1.20110000E+01  1.59994000E+01
        autoparal           1
           diemac      1.00000000E+00
           diemix      4.00000000E-01
             ecut      2.50000000E+02 Hartree
           ecutsm      5.00000000E-01 Hartree
-          fftalg         312
              ixc     -263267
              kpt      2.50000000E-01  2.50000000E-01  2.50000000E-01
                      -2.50000000E-01  2.50000000E-01  2.50000000E-01
                       2.50000000E-01 -2.50000000E-01  2.50000000E-01
                      -2.50000000E-01 -2.50000000E-01  2.50000000E-01
         kptrlatt        2    0    0      0    2    0      0    0    2
          kptrlen      1.99942150E+01
P           mkmem           1
            natom          14
            nband          65
            ngfft         160     144     180
             nkpt           4
-        np_spkpt           8
           nspden           2
           nsppol           2
            nstep          60
             nsym           1
           ntypat           3
              occ      1.000000  1.000000  1.000000  1.000000  1.000000  1.000000
                       1.000000  1.000000  1.000000  1.000000  1.000000  1.000000
                       1.000000  1.000000  1.000000  1.000000  1.000000  1.000000
                       1.000000  1.000000  1.000000  1.000000  1.000000  1.000000
                       1.000000  1.000000  1.000000  1.000000  1.000000  1.000000
                       1.000000  1.000000  1.000000  1.000000  1.000000  1.000000
                       1.000000  1.000000  1.000000  1.000000  1.000000  1.000000
                       1.000000  1.000000  1.000000  1.000000  1.000000  1.000000
                       1.000000  1.000000  0.000000  0.000000  0.000000  0.000000
                       0.000000  0.000000  0.000000  0.000000  0.000000  0.000000
                       0.000000  0.000000  0.000000  0.000000  0.000000
                       1.000000  1.000000  1.000000  1.000000  1.000000  1.000000
                       1.000000  1.000000  1.000000  1.000000  1.000000  1.000000
                       1.000000  1.000000  1.000000  1.000000  1.000000  1.000000
                       1.000000  1.000000  1.000000  1.000000  1.000000  1.000000
                       1.000000  1.000000  1.000000  1.000000  1.000000  1.000000
                       1.000000  1.000000  1.000000  1.000000  1.000000  1.000000
                       1.000000  1.000000  1.000000  1.000000  1.000000  1.000000
                       1.000000  1.000000  1.000000  1.000000  1.000000  1.000000
                       1.000000  1.000000  0.000000  0.000000  0.000000  0.000000
                       0.000000  0.000000  0.000000  0.000000  0.000000  0.000000
                       0.000000  0.000000  0.000000  0.000000  0.000000
                       1.000000  1.000000  1.000000  1.000000  1.000000  1.000000
                       1.000000  1.000000  1.000000  1.000000  1.000000  1.000000
                       1.000000  1.000000  1.000000  1.000000  1.000000  1.000000
                       1.000000  1.000000  1.000000  1.000000  1.000000  1.000000
                       1.000000  1.000000  1.000000  1.000000  1.000000  1.000000
                       1.000000  1.000000  1.000000  1.000000  1.000000  1.000000
                       1.000000  1.000000  1.000000  1.000000  1.000000  1.000000
                       1.000000  1.000000  1.000000  1.000000  1.000000  1.000000
                       1.000000  1.000000  0.000000  0.000000  0.000000  0.000000
                       0.000000  0.000000  0.000000  0.000000  0.000000  0.000000
                       0.000000  0.000000  0.000000  0.000000  0.000000
                       1.000000  1.000000  1.000000  1.000000  1.000000  1.000000
                       1.000000  1.000000  1.000000  1.000000  1.000000  1.000000
                       1.000000  1.000000  1.000000  1.000000  1.000000  1.000000
                       1.000000  1.000000  1.000000  1.000000  1.000000  1.000000
                       1.000000  1.000000  1.000000  1.000000  1.000000  1.000000
                       1.000000  1.000000  1.000000  1.000000  1.000000  1.000000
                       1.000000  1.000000  1.000000  1.000000  1.000000  1.000000
                       1.000000  1.000000  1.000000  1.000000  1.000000  1.000000
                       1.000000  1.000000  0.000000  0.000000  0.000000  0.000000
                       0.000000  0.000000  0.000000  0.000000  0.000000  0.000000
                       0.000000  0.000000  0.000000  0.000000  0.000000
                       1.000000  1.000000  1.000000  1.000000  1.000000  1.000000
                       1.000000  1.000000  1.000000  1.000000  1.000000  1.000000
                       1.000000  1.000000  1.000000  1.000000  1.000000  1.000000
                       1.000000  1.000000  1.000000  1.000000  1.000000  1.000000
                       1.000000  1.000000  1.000000  1.000000  1.000000  1.000000
                       1.000000  1.000000  1.000000  1.000000  1.000000  1.000000
                       1.000000  1.000000  1.000000  1.000000  1.000000  1.000000
                       1.000000  1.000000  1.000000  1.000000  1.000000  1.000000
                       1.000000  1.000000  0.000000  0.000000  0.000000  0.000000
                       0.000000  0.000000  0.000000  0.000000  0.000000  0.000000
                       0.000000  0.000000  0.000000  0.000000  0.000000
                       1.000000  1.000000  1.000000  1.000000  1.000000  1.000000
                       1.000000  1.000000  1.000000  1.000000  1.000000  1.000000
                       1.000000  1.000000  1.000000  1.000000  1.000000  1.000000
                       1.000000  1.000000  1.000000  1.000000  1.000000  1.000000
                       1.000000  1.000000  1.000000  1.000000  1.000000  1.000000
                       1.000000  1.000000  1.000000  1.000000  1.000000  1.000000
                       1.000000  1.000000  1.000000  1.000000  1.000000  1.000000
                       1.000000  1.000000  1.000000  1.000000  1.000000  1.000000
                       1.000000  1.000000  0.000000  0.000000  0.000000  0.000000
                       0.000000  0.000000  0.000000  0.000000  0.000000  0.000000
                       0.000000  0.000000  0.000000  0.000000  0.000000
                       1.000000  1.000000  1.000000  1.000000  1.000000  1.000000
                       1.000000  1.000000  1.000000  1.000000  1.000000  1.000000
                       1.000000  1.000000  1.000000  1.000000  1.000000  1.000000
                       1.000000  1.000000  1.000000  1.000000  1.000000  1.000000
                       1.000000  1.000000  1.000000  1.000000  1.000000  1.000000
                       1.000000  1.000000  1.000000  1.000000  1.000000  1.000000
                       1.000000  1.000000  1.000000  1.000000  1.000000  1.000000
                       1.000000  1.000000  1.000000  1.000000  1.000000  1.000000
                       1.000000  1.000000  0.000000  0.000000  0.000000  0.000000
                       0.000000  0.000000  0.000000  0.000000  0.000000  0.000000
                       0.000000  0.000000  0.000000  0.000000  0.000000
                       1.000000  1.000000  1.000000  1.000000  1.000000  1.000000
                       1.000000  1.000000  1.000000  1.000000  1.000000  1.000000
                       1.000000  1.000000  1.000000  1.000000  1.000000  1.000000
                       1.000000  1.000000  1.000000  1.000000  1.000000  1.000000
                       1.000000  1.000000  1.000000  1.000000  1.000000  1.000000
                       1.000000  1.000000  1.000000  1.000000  1.000000  1.000000
                       1.000000  1.000000  1.000000  1.000000  1.000000  1.000000
                       1.000000  1.000000  1.000000  1.000000  1.000000  1.000000
                       1.000000  1.000000  0.000000  0.000000  0.000000  0.000000
                       0.000000  0.000000  0.000000  0.000000  0.000000  0.000000
                       0.000000  0.000000  0.000000  0.000000  0.000000
           occopt           3
           prtden           0
           prteig           0
          prtkden           1
            prtwf           0
            rprim      0.0000000000E+00  1.0137047334E+01  0.0000000000E+00
                       9.6126033568E+00  0.0000000000E+00  0.0000000000E+00
                       0.0000000000E+00 -5.7455806104E+00 -9.8776109362E+00
           shiftk      5.00000000E-01  5.00000000E-01  5.00000000E-01
          spgroup           1
           spinat      0.0000000000E+00  0.0000000000E+00  1.0000000000E+00
                       0.0000000000E+00  0.0000000000E+00  1.0000000000E+00
                       0.0000000000E+00  0.0000000000E+00  1.0000000000E+00
                       0.0000000000E+00  0.0000000000E+00  1.0000000000E+00
                       0.0000000000E+00  0.0000000000E+00  1.0000000000E+00
                       0.0000000000E+00  0.0000000000E+00  1.0000000000E+00
                       0.0000000000E+00  0.0000000000E+00  1.0000000000E+00
                       0.0000000000E+00  0.0000000000E+00  1.0000000000E+00
                       0.0000000000E+00  0.0000000000E+00  1.0000000000E+00
                       0.0000000000E+00  0.0000000000E+00  1.0000000000E+00
                       0.0000000000E+00  0.0000000000E+00  1.0000000000E+00
                       0.0000000000E+00  0.0000000000E+00  1.0000000000E+00
                       0.0000000000E+00  0.0000000000E+00  1.0000000000E+00
                       0.0000000000E+00  0.0000000000E+00  1.0000000000E+00
           toldfe      1.00000000E-06 Hartree
           tsmear      1.00000000E-03 Hartree
            typat      1  1  2  2  2  2  3  3  3  3  3  3  3  3
          usekden           1
              wtk        0.25000    0.25000    0.25000    0.25000
           xangst      2.6451207180E+00 -1.5810237608E+00 -2.7180434230E+00
                       0.0000000000E+00  0.0000000000E+00  0.0000000000E+00
                       3.2825260379E+00  1.2386594092E+00 -2.2333021229E+00
                       6.3740531991E-01  2.7591830180E+00 -4.8474130015E-01
                       2.0077153981E+00  1.1781592572E+00 -3.2027847232E+00
                       4.6528361162E+00 -3.4236435151E-01 -4.9513455459E+00
                       1.5476812931E+00  2.3239541085E+00 -3.6887002181E+00
                       4.1928020111E+00 -1.4881592028E+00 -4.4654300510E+00
                       3.7425601430E+00  9.2864557946E-02 -1.7473866280E+00
                       1.0974394249E+00  3.9049778693E+00 -9.7065679506E-01
                       3.7860988300E+00  2.4258338222E+00 -1.9911244539E+00
                       1.1409781120E+00  1.5720086051E+00 -7.2691896915E-01
                       1.5041426061E+00 -9.0151556738E-03 -3.4449623922E+00
                       4.1492633241E+00  8.4481006140E-01 -4.7091678769E+00
            xcart      4.9985537455E+00 -2.9877019174E+00 -5.1363576868E+00
                       0.0000000000E+00  0.0000000000E+00  0.0000000000E+00
                       6.2030752358E+00  2.3407270554E+00 -4.2203293843E+00
                       1.2045214903E+00  5.2141002545E+00 -9.1602830259E-01
                       3.7940322552E+00  2.2263983371E+00 -6.0523859894E+00
                       8.7925860008E+00 -6.4697486202E-01 -9.3566870711E+00
                       2.9246937849E+00  4.3916368105E+00 -6.9706331985E+00
                       7.9232475304E+00 -2.8122133354E+00 -8.4384398620E+00
                       7.0724137061E+00  1.7548858197E-01 -3.3020821751E+00
                       2.0738599606E+00  7.3793387279E+00 -1.8342755117E+00
                       7.1546899007E+00  4.5841615678E+00 -3.7626799144E+00
                       2.1561361552E+00  2.9706657421E+00 -1.3736777725E+00
                       2.8424175903E+00 -1.7036175269E-02 -6.5100354593E+00
                       7.8409713358E+00  1.5964596503E+00 -8.8990376012E+00
             xred     -2.5179664158E-18  5.0000000000E-01  5.0000000000E-01
                       0.0000000000E+00  0.0000000000E+00  0.0000000000E+00
                       4.5488100000E-01  6.2048700000E-01  4.1082900000E-01
                       5.4511900000E-01  1.2048700000E-01  8.9171000000E-02
                       5.4511900000E-01  3.7951300000E-01  5.8917100000E-01
                       4.5488100000E-01  8.7951300000E-01  9.1082900000E-01
                       8.0116400000E-01  2.9255400000E-01  6.7855800000E-01
                       1.9883600000E-01  7.9255400000E-01  8.2144200000E-01
                       1.9883600000E-01  7.0744600000E-01  3.2144200000E-01
                       8.0116400000E-01  2.0744600000E-01  1.7855800000E-01
                       6.4242900000E-01  7.1567600000E-01  3.6627900000E-01
                       3.5757100000E-01  2.1567600000E-01  1.3372100000E-01
                       3.5757100000E-01  2.8432400000E-01  6.3372100000E-01
                       6.4242900000E-01  7.8432400000E-01  8.6627900000E-01
            znucl       28.00000    6.00000    8.00000

================================================================================

 chkinp: Checking input parameters for consistency.

================================================================================
== DATASET  1 ==================================================================
-   mpi_nproc: 8, omp_nthreads: -1 (-1 if OMP is not activated)


--- !DatasetInfo
iteration_state: {dtset: 1, }
dimensions: {natom: 14, nkpt: 4, mband: 65, nsppol: 2, nspinor: 1, nspden: 2, mpw: 204443, }
cutoff_energies: {ecut: 250.0, pawecutdg:  -1.0, }
electrons: {nelect:   1.00000000E+02, charge:   0.00000000E+00, occopt:   3.00000000E+00, tsmear:   1.00000000E-03, }
meta: {optdriver: 0, ionmov: 0, optcell: 0, iscf: 7, paral_kgb: 0, }
...

 Real(R)+Recip(G) space primitive vectors, cartesian coordinates (Bohr,Bohr^-1):
 R(1)=  0.0000000 10.5425292  0.0000000  G(1)=  0.0000000  0.0948539 -0.0551743
 R(2)=  9.9971075  0.0000000  0.0000000  G(2)=  0.1000289  0.0000000  0.0000000
 R(3)=  0.0000000 -5.9754038-10.2727154  G(3)=  0.0000000  0.0000000 -0.0973452
 Unit cell volume ucvol=  1.0826908E+03 bohr^3
 Angles (23,13,12)=  9.00000000E+01  1.20185586E+02  9.00000000E+01 degrees

 getcut: wavevector=  0.0000  0.0000  0.0000  ngfft= 160 144 180
         ecut(hartree)=    250.000   => boxcut(ratio)=   2.02373

--- Pseudopotential description ------------------------------------------------
- pspini: atom type   1  psp file is ../Ni.pot
- pspatm: opening atomic psp file    ../Ni.pot
- Ni    ONCVPSP-4.0.1  r_core=   2.18101   2.18101   2.24723
- 28.00000  18.00000    200312                znucl, zion, pspdat
    8   11    2    4       600   0.00000      pspcod,pspxc,lmax,lloc,mmax,r2well
    5.99000000000000    0.00000000000000    0.00000000000000   rchrg,fchrg,qchrg
     nproj     2     2     2
     extension_switch     1
  pspatm : epsatm=   38.47316822
         --- l  ekb(1:nproj) -->
             0   -3.440917   -0.196078
             1   -5.406223   -1.725842
             2   -7.274254   -2.503385
 pspatm: atomic psp has been read  and splines computed

- pspini: atom type   2  psp file is ../C.pot
- pspatm: opening atomic psp file    ../C.pot
- C     ONCVPSP-4.0.1  r_core=   1.42727   1.38521
-  6.00000   4.00000    200312                znucl, zion, pspdat
    8   11    1    4       600   0.00000      pspcod,pspxc,lmax,lloc,mmax,r2well
    5.99000000000000    0.00000000000000    0.00000000000000   rchrg,fchrg,qchrg
     nproj     2     2
     extension_switch     1
  pspatm : epsatm=    2.26998732
         --- l  ekb(1:nproj) -->
             0    7.571912    0.889574
             1   -3.169338   -0.856835
 pspatm: atomic psp has been read  and splines computed

- pspini: atom type   3  psp file is ../O.pot
- pspatm: opening atomic psp file    ../O.pot
- O     ONCVPSP-4.0.1  r_core=   1.28926   1.47061
-  8.00000   6.00000    200312                znucl, zion, pspdat
    8   11    1    4       600   0.00000      pspcod,pspxc,lmax,lloc,mmax,r2well
    5.99000000000000    0.00000000000000    0.00000000000000   rchrg,fchrg,qchrg
     nproj     2     2
     extension_switch     1
  pspatm : epsatm=    3.44365635
         --- l  ekb(1:nproj) -->
             0    9.802940    1.339963
             1   -3.661294   -1.085684
 pspatm: atomic psp has been read  and splines computed

   1.13575537E+04                                ecore*ucvol(ha*bohr**3)
--------------------------------------------------------------------------------

_setup2: Arith. and geom. avg. npw (full set) are  204413.000  204412.998

================================================================================

--- !BeginCycle
iteration_state: {dtset: 1, }
solver: {iscf: 7, nstep: 60, nline: 4, wfoptalg: 0, }
tolerances: {toldfe: 1.00E-06, }
...

     iter   Etot(hartree)     deltaE(h) residm    vres2    magn
 ETOT  1  -455.39962141304    -4.55E+02 3.24E-01 3.68E+05 1.659
 ETOT  2  -455.65797960586    -2.58E-01 3.99E-02 1.11E+06 3.997
 ETOT  3  -457.72830700991    -2.07E+00 1.84E-02 5.25E+05 1.872
 ETOT  4  -457.90583492374    -1.78E-01 5.43E-03 3.68E+05 3.886
 ETOT  5  -458.41033950879    -5.05E-01 3.21E-03 2.47E+05 2.776
 ETOT  6  -458.48040174975    -7.01E-02 1.78E-03 2.19E+05 2.627
 ETOT  7  -458.55051621546    -7.01E-02 1.57E-03 1.95E+05 2.603
 ETOT  8  -458.80753654849    -2.57E-01 1.22E-03 1.26E+05 3.722
 ETOT  9  -458.72458593577     8.30E-02 1.00E-03 1.38E+05 3.394
 ETOT 10  -459.00980051225    -2.85E-01 7.06E-03 9.84E+04 4.000
 ETOT 11  -459.04388744287    -3.41E-02 6.87E-04 6.41E+04 4.000
 ETOT 12  -459.04403621417    -1.49E-04 1.25E-03 4.05E+04 4.000
 ETOT 13  -459.06008214883    -1.60E-02 3.32E-04 1.54E+04 4.000
 ETOT 14  -459.06798750629    -7.91E-03 9.23E-04 4.24E+03 4.000
 ETOT 15  -459.06966929463    -1.68E-03 3.03E-04 2.88E+03 4.000
 ETOT 16  -459.06981954950    -1.50E-04 7.20E-04 1.55E+03 4.000
 ETOT 17  -459.07050443202    -6.85E-04 5.21E-04 1.84E+02 4.000
 ETOT 18  -459.07053282144    -2.84E-05 1.09E-03 7.83E+01 4.000
 ETOT 19  -459.07054495632    -1.21E-05 5.17E-04 2.10E+01 4.000
 ETOT 20  -459.07055220688    -7.25E-06 9.97E-04 1.11E+01 4.000
 ETOT 21  -459.07055517411    -2.97E-06 3.41E-04 6.91E+00 4.000
 ETOT 22  -459.07055850247    -3.33E-06 6.43E-04 3.57E+00 4.000
 ETOT 23  -459.07056053626    -2.03E-06 1.77E-04 2.60E+00 4.000
 ETOT 24  -459.07056249015    -1.95E-06 3.26E-04 1.10E+00 4.000
 ETOT 25  -459.07056369803    -1.21E-06 7.96E-05 5.05E-01 4.000
 ETOT 26  -459.07056427031    -5.72E-07 1.49E-04 3.32E-01 4.000
 ETOT 27  -459.07056452812    -2.58E-07 3.41E-05 1.56E-01 4.000

 At SCF step   27, etot is converged : 
  for the second time, diff in etot=  2.578E-07 < toldfe=  1.000E-06

Result for kinetic energy density :

--------------------------------------------------------------------------------
 Total kinetic energy density [Ha/Bohr^3]
      Maximum=    1.9573E+01  at reduced coord.    0.0000    0.0069    0.0111
      Minimum=    6.9624E-04  at reduced coord.    0.0000    0.0000    0.5000
   Integrated=    2.3499E+02
 Spin up density      [Ha/Bohr^3]
      Maximum=    1.0226E+01  at reduced coord.    0.0188    0.9792    0.0111
      Minimum=    3.4536E-04  at reduced coord.    0.0000    0.0000    0.5000
   Integrated=    1.2752E+02
 Spin down density    [Ha/Bohr^3]
      Maximum=    9.8337E+00  at reduced coord.    0.0000    0.0000    0.0000
      Minimum=    3.5088E-04  at reduced coord.    0.0000    0.0000    0.5000
   Integrated=    1.0747E+02
 Magnetization (spin up - spin down) [Ha/Bohr^3]
      Maximum=    2.9870E+00  at reduced coord.    0.9750    0.9792    0.0278
      Minimum=   -2.9223E-01  at reduced coord.    0.0000    0.0000    0.0000
   Integrated=    2.0052E+01
 Relative magnetization (=zeta, between -1 and 1)
      Maximum=    3.2145E-01  at reduced coord.    0.0813    0.8958    0.1222
      Minimum=   -2.1075E-02  at reduced coord.    0.1938    0.0972    0.2944
--------------------------------------------------------------------------------

 Cartesian components of stress tensor (hartree/bohr^3)
  sigma(1 1)=  1.20167357E-02  sigma(3 2)= -7.92536771E-05
  sigma(2 2)=  1.25970329E-02  sigma(3 1)=  2.87044766E-08
  sigma(3 3)=  1.18923005E-02  sigma(2 1)=  2.03392364E-08


--- !ResultsGS
iteration_state: {dtset: 1, }
comment   : Summary of ground state results
lattice_vectors:
- [  0.0000000,  10.5425292,   0.0000000, ]
- [  9.9971075,   0.0000000,   0.0000000, ]
- [  0.0000000,  -5.9754038, -10.2727154, ]
lattice_lengths: [  10.54253,    9.99711,   11.88420, ]
lattice_angles: [ 90.000, 120.186,  90.000, ] # degrees, (23, 13, 12)
lattice_volume:   1.0826908E+03
convergence: {deltae: -2.578E-07, res2:  1.561E-01, residm:  3.411E-05, diffor: null, }
etotal    :  -4.59070565E+02
entropy   :   0.00000000E+00
fermie    :   8.42590582E-02
cartesian_stress_tensor: # hartree/bohr^3
- [  1.20167357E-02,   2.03392364E-08,   2.87044766E-08, ]
- [  2.03392364E-08,   1.25970329E-02,  -7.92536771E-05, ]
- [  2.87044766E-08,  -7.92536771E-05,   1.18923005E-02, ]
pressure_GPa:  -3.5802E+02
xred      :
- [ -2.5180E-18,   5.0000E-01,   5.0000E-01, Ni]
- [  0.0000E+00,   0.0000E+00,   0.0000E+00, Ni]
- [  4.5488E-01,   6.2049E-01,   4.1083E-01,  C]
- [  5.4512E-01,   1.2049E-01,   8.9171E-02,  C]
- [  5.4512E-01,   3.7951E-01,   5.8917E-01,  C]
- [  4.5488E-01,   8.7951E-01,   9.1083E-01,  C]
- [  8.0116E-01,   2.9255E-01,   6.7856E-01,  O]
- [  1.9884E-01,   7.9255E-01,   8.2144E-01,  O]
- [  1.9884E-01,   7.0745E-01,   3.2144E-01,  O]
- [  8.0116E-01,   2.0745E-01,   1.7856E-01,  O]
- [  6.4243E-01,   7.1568E-01,   3.6628E-01,  O]
- [  3.5757E-01,   2.1568E-01,   1.3372E-01,  O]
- [  3.5757E-01,   2.8432E-01,   6.3372E-01,  O]
- [  6.4243E-01,   7.8432E-01,   8.6628E-01,  O]
cartesian_forces: # hartree/bohr
- [ -2.24294663E-06,   1.10806633E-05,   1.56552617E-06, ]
- [ -3.35258424E-06,  -3.93492725E-06,  -3.68643513E-06, ]
- [  2.19366139E-02,   9.56257770E-03,   1.64401738E-02, ]
- [  2.19295187E-02,  -9.54854358E-03,  -1.64379318E-02, ]
- [ -2.19368560E-02,  -9.57992669E-03,  -1.64380744E-02, ]
- [ -2.19297818E-02,   9.55501965E-03,   1.64374866E-02, ]
- [  2.42645537E-02,  -5.08794068E-02,   2.34712233E-02, ]
- [  2.42590301E-02,   5.08758417E-02,  -2.34741388E-02, ]
- [ -2.42663811E-02,   5.08841850E-02,  -2.34726895E-02, ]
- [ -2.42596419E-02,  -5.08790825E-02,   2.34747553E-02, ]
- [ -3.41139233E-02,  -5.56883025E-02,  -1.62051004E-02, ]
- [ -3.41147951E-02,   5.56768640E-02,   1.61945904E-02, ]
- [  3.41199667E-02,   5.56903219E-02,   1.62076929E-02, ]
- [  3.41172917E-02,  -5.56766937E-02,  -1.61958666E-02, ]
force_length_stats: {min:   6.34927378E-06, max:   6.72924467E-02, mean:   4.49649891E-02, }
...

 Integrated electronic and magnetization densities in atomic spheres:
 ---------------------------------------------------------------------
 Radius=ratsph(iatom), smearing ratsm=  0.0000. Diff(up-dn)=approximate z local magnetic moment.
 Atom    Radius    up_density   dn_density  Total(up+dn)  Diff(up-dn)
    1   2.00000     8.855596     7.125450     15.981046     1.730146
    2   2.00000     8.855598     7.125476     15.981075     1.730122
    3   2.00000     2.511591     2.500354      5.011945     0.011237
    4   2.00000     2.511529     2.500393      5.011923     0.011136
    5   2.00000     2.511582     2.500363      5.011945     0.011219
    6   2.00000     2.511540     2.500381      5.011921     0.011158
    7   2.00000     3.252656     3.169224      6.421879     0.083432
    8   2.00000     3.252660     3.169195      6.421855     0.083465
    9   2.00000     3.252638     3.169211      6.421849     0.083427
   10   2.00000     3.252659     3.169186      6.421845     0.083473
   11   2.00000     3.256838     3.208721      6.465559     0.048118
   12   2.00000     3.256896     3.208683      6.465579     0.048213
   13   2.00000     3.256831     3.208698      6.465529     0.048133
   14   2.00000     3.256889     3.208680      6.465569     0.048209
 ---------------------------------------------------------------------
  Sum:             53.795503    49.764016    103.559519     4.031487
 Total magnetization (from the atomic spheres):             4.031487
 Total magnetization (exact up - dn):                       4.000000
================================================================================

 ----iterations are completed or convergence reached----

 Mean square residual over all n,k,spin=   71.162E-09; max=  34.114E-06
 reduced coordinates (array xred) for   14 atoms
      -0.000000000000      0.500000000000      0.500000000000
       0.000000000000      0.000000000000      0.000000000000
       0.454881000000      0.620487000000      0.410829000000
       0.545119000000      0.120487000000      0.089171000000
       0.545119000000      0.379513000000      0.589171000000
       0.454881000000      0.879513000000      0.910829000000
       0.801164000000      0.292554000000      0.678558000000
       0.198836000000      0.792554000000      0.821442000000
       0.198836000000      0.707446000000      0.321442000000
       0.801164000000      0.207446000000      0.178558000000
       0.642429000000      0.715676000000      0.366279000000
       0.357571000000      0.215676000000      0.133721000000
       0.357571000000      0.284324000000      0.633721000000
       0.642429000000      0.784324000000      0.866279000000
 rms dE/dt=  3.3380E-01; max dE/dt=  5.8710E-01; dE/dt below (all hartree)
    1      -0.000116189138      0.000022247785      0.000082050098
    2       0.000042113164      0.000033340951     -0.000061626023
    3      -0.100813125846     -0.219302861869      0.226025246581
    4       0.100666428845     -0.219231931309     -0.225918842403
    5       0.100997286168      0.219304931957     -0.226107833497
    6      -0.100733444894      0.219234210975      0.225952479176
    7       0.536398261940     -0.242575526328     -0.062912049672
    8      -0.536359418788     -0.242520306901      0.062860309851
    9      -0.536447378422      0.242593445077      0.062925052624
   10       0.536394843125      0.242526072306     -0.062873828594
   11       0.587096185855      0.341040383233     -0.499230723879
   12      -0.586974336669      0.341049098831      0.499053921231
   13      -0.587116217514     -0.341101149393      0.499268935249
   14       0.586973799273     -0.341074408030     -0.499066500371

 cartesian coordinates (angstrom) at end:
    1      2.64512071803794    -1.58102376075846    -2.71804342304223
    2      0.00000000000000     0.00000000000000     0.00000000000000
    3      3.28252603794642     1.23865940924642    -2.23330212289003
    4      0.63740531990848     2.75918301799526    -0.48474130015220
    5      2.00771539812947     1.17815925723680    -3.20278472319442
    6      4.65283611616741    -0.34236435151204    -4.95134554593225
    7      1.54768129308975     2.32395410853747    -3.68870021810537
    8      4.19280201112769    -1.48815920281270    -4.46543005102130
    9      3.74256014298614     0.09286455794575    -1.74738662797908
   10      1.09743942494820     3.90497786929593    -0.97065679506315
   11      3.78609883000505     2.42583382215705    -1.99112445389697
   12      1.14097811196710     1.57200860508463    -0.72691896914526
   13      1.50414260607084    -0.00901515567383    -3.44496239218749
   14      4.14926332410879     0.84481006139859    -4.70916787693919

 cartesian forces (hartree/bohr) at end:
    1     -0.00000224294663     0.00001108066332     0.00000156552617
    2     -0.00000335258424    -0.00000393492725    -0.00000368643513
    3      0.02193661385279     0.00956257770318     0.01644017384927
    4      0.02192951874449    -0.00954854357957    -0.01643793182166
    5     -0.02193685597040    -0.00957992668664    -0.01643807436967
    6     -0.02192978182597     0.00955501965419     0.01643748663280
    7      0.02426455365736    -0.05087940676234     0.02347122327297
    8      0.02425903011692     0.05087584167901    -0.02347413875512
    9     -0.02426638109962     0.05088418499321    -0.02347268946924
   10     -0.02425964187316    -0.05087908247439     0.02347475528229
   11     -0.03411392332567    -0.05568830250474    -0.01620510039814
   12     -0.03411479513762     0.05567686397548     0.01619459044795
   13      0.03411996665084     0.05569032192678     0.01620769285756
   14      0.03411729174090    -0.05567669366023    -0.01619586662005
 frms,max,avg= 2.9436137E-02 5.5690322E-02   1.752E-08 -5.967E-08  1.100E-08 h/b

 cartesian forces (eV/Angstrom) at end:
    1     -0.00011533694344     0.00056979056944     0.00008050258541
    2     -0.00017239679869    -0.00020234207760    -0.00018956409998
    3      1.12802594376171     0.49172747493360     0.84538765856843
    4      1.12766109865427    -0.49100581134259    -0.84527236888280
    5     -1.12803839394880    -0.49261959545723    -0.84527969899577
    6     -1.12767462684680     0.49133882446047     0.84524947635333
    7      1.24773341149995    -2.61632406971594     1.20693872634157
    8      1.24744937965454     2.61614074577571    -1.20708864644859
    9     -1.24782738235116     2.61656977620593    -1.20701412117878
   10     -1.24748083742221    -2.61630739416057     1.20712034954780
   11     -1.75420832098712    -2.86360741046667    -0.83329969670967
   12     -1.75425315135654     2.86301921769189     0.83275925338675
   13      1.75451908123593     2.86371125331396     0.83343300632155
   14      1.75438153184836    -2.86301045973041    -0.83282487678925
 frms,max,avg= 1.5136669E+00 2.8637113E+00   9.011E-07 -3.068E-06  5.657E-07 e/A
 length scales=  1.040000000000  1.040000000000  1.040000000000 bohr
              =  0.550344296934  0.550344296934  0.550344296934 angstroms
 Fermi (or HOMO) energy (hartree) =   0.08426   Average Vxc (hartree)=  -0.38396
 Magnetization (Bohr magneton)=  4.00000000E+00
 Total spin up =  5.20000000E+01   Total spin down =  4.80000000E+01
 Eigenvalues (hartree) for nkpt=   4  k points, SPIN UP:
 kpt#   1, nband= 65, wtk=  0.25000, kpt=  0.2500  0.2500  0.2500 (reduced coord)
  -3.91443   -3.91442   -2.43893   -2.43893   -2.43857   -2.43856   -2.43255   -2.43254
  -0.79149   -0.78464   -0.76236   -0.76156   -0.71608   -0.71309   -0.69833   -0.69735
  -0.37412   -0.35856   -0.25950   -0.25581   -0.23174   -0.22848   -0.20191   -0.19739
  -0.18327   -0.17678   -0.16175   -0.15114   -0.12371   -0.12043   -0.11286   -0.10263
  -0.09843   -0.09513   -0.08214   -0.06477   -0.06254   -0.05677   -0.05380   -0.04893
  -0.03895   -0.03640   -0.03316   -0.03220   -0.01705   -0.01596   -0.01031   -0.00690
  -0.00355    0.00539    0.01698    0.02310    0.16457    0.17729    0.27899    0.28210
   0.29703    0.31247    0.36545    0.37189    0.39665    0.42667    0.43854    0.45364
   0.46596
      occupation numbers for kpt#   1
   1.00000    1.00000    1.00000    1.00000    1.00000    1.00000    1.00000    1.00000
   1.00000    1.00000    1.00000    1.00000    1.00000    1.00000    1.00000    1.00000
   1.00000    1.00000    1.00000    1.00000    1.00000    1.00000    1.00000    1.00000
   1.00000    1.00000    1.00000    1.00000    1.00000    1.00000    1.00000    1.00000
   1.00000    1.00000    1.00000    1.00000    1.00000    1.00000    1.00000    1.00000
   1.00000    1.00000    1.00000    1.00000    1.00000    1.00000    1.00000    1.00000
   1.00000    1.00000    1.00000    1.00000    0.00000    0.00000    0.00000    0.00000
   0.00000    0.00000    0.00000    0.00000    0.00000    0.00000    0.00000    0.00000
   0.00000
 prteigrs : prtvol=0 or 1, do not print more k-points.

 Eigenvalues (hartree) for nkpt=   4  k points, SPIN DOWN:
 kpt#   1, nband= 65, wtk=  0.25000, kpt=  0.2500  0.2500  0.2500 (reduced coord)
  -3.83343   -3.83341   -2.32387   -2.32385   -2.32236   -2.32235   -2.31966   -2.31965
  -0.78805   -0.78106   -0.75832   -0.75749   -0.71152   -0.70829   -0.69328   -0.69240
  -0.37199   -0.35629   -0.25351   -0.24925   -0.22502   -0.22249   -0.19689   -0.19126
  -0.17916   -0.16775   -0.15566   -0.14520   -0.11783   -0.09739   -0.08266   -0.07479
  -0.06282   -0.05969   -0.05213   -0.04548   -0.03324   -0.03153   -0.02590   -0.02055
  -0.01531   -0.00979   -0.00102    0.00511    0.00907    0.01360    0.01386    0.01638
   0.12593    0.13395    0.14431    0.15102    0.16756    0.17914    0.28200    0.29138
   0.29858    0.32342    0.37032    0.37820    0.40110    0.43283    0.44220    0.45906
   0.47102
      occupation numbers for kpt#   1
   1.00000    1.00000    1.00000    1.00000    1.00000    1.00000    1.00000    1.00000
   1.00000    1.00000    1.00000    1.00000    1.00000    1.00000    1.00000    1.00000
   1.00000    1.00000    1.00000    1.00000    1.00000    1.00000    1.00000    1.00000
   1.00000    1.00000    1.00000    1.00000    1.00000    1.00000    1.00000    1.00000
   1.00000    1.00000    1.00000    1.00000    1.00000    1.00000    1.00000    1.00000
   1.00000    1.00000    1.00000    1.00000    1.00000    1.00000    1.00000    1.00000
   0.00000    0.00000    0.00000    0.00000    0.00000    0.00000    0.00000    0.00000
   0.00000    0.00000    0.00000    0.00000    0.00000    0.00000    0.00000    0.00000
   0.00000
 prteigrs : prtvol=0 or 1, do not print more k-points.


--- !EnergyTerms
iteration_state     : {dtset: 1, }
comment             : Components of total free energy in Hartree
kinetic             :  2.34989308526213E+02
hartree             :  1.74356780513001E+02
xc                  : -6.48958159053071E+01
Ewald energy        : -2.55835955338113E+02
psp_core            :  1.04901178295739E+01
local_psp           : -4.48231488229326E+02
non_local_psp       : -1.09943511924158E+02
internal            : -4.59070564528116E+02
'-kT*entropy'       :  4.26290451696855E-15
total_energy        : -4.59070564528116E+02
total_energy_eV     : -1.24919453502015E+04
band_energy         : -6.31960782764722E+01
...


 Cartesian components of stress tensor (hartree/bohr^3)
  sigma(1 1)=  1.20167357E-02  sigma(3 2)= -7.92536771E-05
  sigma(2 2)=  1.25970329E-02  sigma(3 1)=  2.87044766E-08
  sigma(3 3)=  1.18923005E-02  sigma(2 1)=  2.03392364E-08

-Cartesian components of stress tensor (GPa)         [Pressure= -3.5802E+02 GPa]
- sigma(1 1)=  3.53544512E+02  sigma(3 2)= -2.33172329E+00
- sigma(2 2)=  3.70617441E+02  sigma(3 1)=  8.44514717E-04
- sigma(3 3)=  3.49883503E+02  sigma(2 1)=  5.98400894E-04

== END DATASET(S) ==============================================================
================================================================================
  
 -outvars: echo values of variables after computation  --------
            acell      1.0400000000E+00  1.0400000000E+00  1.0400000000E+00 Bohr
              amu      5.86900000E+01  1.20110000E+01  1.59994000E+01
        autoparal           1
           diemac      1.00000000E+00
           diemix      4.00000000E-01
             ecut      2.50000000E+02 Hartree
           ecutsm      5.00000000E-01 Hartree
           etotal     -4.5907056453E+02
            fcart     -2.2429466318E-06  1.1080663320E-05  1.5655261655E-06
                      -3.3525842409E-06 -3.9349272479E-06 -3.6864351255E-06
                       2.1936613853E-02  9.5625777032E-03  1.6440173849E-02
                       2.1929518744E-02 -9.5485435796E-03 -1.6437931822E-02
                      -2.1936855970E-02 -9.5799266866E-03 -1.6438074370E-02
                      -2.1929781826E-02  9.5550196542E-03  1.6437486633E-02
                       2.4264553657E-02 -5.0879406762E-02  2.3471223273E-02
                       2.4259030117E-02  5.0875841679E-02 -2.3474138755E-02
                      -2.4266381100E-02  5.0884184993E-02 -2.3472689469E-02
                      -2.4259641873E-02 -5.0879082474E-02  2.3474755282E-02
                      -3.4113923326E-02 -5.5688302505E-02 -1.6205100398E-02
                      -3.4114795138E-02  5.5676863975E-02  1.6194590448E-02
                       3.4119966651E-02  5.5690321927E-02  1.6207692858E-02
                       3.4117291741E-02 -5.5676693660E-02 -1.6195866620E-02
-          fftalg         312
              ixc     -263267
              kpt      2.50000000E-01  2.50000000E-01  2.50000000E-01
                      -2.50000000E-01  2.50000000E-01  2.50000000E-01
                       2.50000000E-01 -2.50000000E-01  2.50000000E-01
                      -2.50000000E-01 -2.50000000E-01  2.50000000E-01
         kptrlatt        2    0    0      0    2    0      0    0    2
          kptrlen      1.99942150E+01
P           mkmem           1
            natom          14
            nband          65
            ngfft         160     144     180
             nkpt           4
-        np_spkpt           8
           nspden           2
           nsppol           2
            nstep          60
             nsym           1
           ntypat           3
              occ      1.000000  1.000000  1.000000  1.000000  1.000000  1.000000
                       1.000000  1.000000  1.000000  1.000000  1.000000  1.000000
                       1.000000  1.000000  1.000000  1.000000  1.000000  1.000000
                       1.000000  1.000000  1.000000  1.000000  1.000000  1.000000
                       1.000000  1.000000  1.000000  1.000000  1.000000  1.000000
                       1.000000  1.000000  1.000000  1.000000  1.000000  1.000000
                       1.000000  1.000000  1.000000  1.000000  1.000000  1.000000
                       1.000000  1.000000  1.000000  1.000000  1.000000  1.000000
                       1.000000  1.000000  1.000000  1.000000  0.000000  0.000000
                       0.000000  0.000000  0.000000  0.000000  0.000000  0.000000
                       0.000000  0.000000  0.000000  0.000000  0.000000
                       1.000000  1.000000  1.000000  1.000000  1.000000  1.000000
                       1.000000  1.000000  1.000000  1.000000  1.000000  1.000000
                       1.000000  1.000000  1.000000  1.000000  1.000000  1.000000
                       1.000000  1.000000  1.000000  1.000000  1.000000  1.000000
                       1.000000  1.000000  1.000000  1.000000  1.000000  1.000000
                       1.000000  1.000000  1.000000  1.000000  1.000000  1.000000
                       1.000000  1.000000  1.000000  1.000000  1.000000  1.000000
                       1.000000  1.000000  1.000000  1.000000  1.000000  1.000000
                       1.000000  1.000000  1.000000  1.000000  0.000000  0.000000
                       0.000000  0.000000  0.000000  0.000000  0.000000  0.000000
                       0.000000  0.000000  0.000000  0.000000  0.000000
                       1.000000  1.000000  1.000000  1.000000  1.000000  1.000000
                       1.000000  1.000000  1.000000  1.000000  1.000000  1.000000
                       1.000000  1.000000  1.000000  1.000000  1.000000  1.000000
                       1.000000  1.000000  1.000000  1.000000  1.000000  1.000000
                       1.000000  1.000000  1.000000  1.000000  1.000000  1.000000
                       1.000000  1.000000  1.000000  1.000000  1.000000  1.000000
                       1.000000  1.000000  1.000000  1.000000  1.000000  1.000000
                       1.000000  1.000000  1.000000  1.000000  1.000000  1.000000
                       1.000000  1.000000  1.000000  1.000000  0.000000  0.000000
                       0.000000  0.000000  0.000000  0.000000  0.000000  0.000000
                       0.000000  0.000000  0.000000  0.000000  0.000000
                       1.000000  1.000000  1.000000  1.000000  1.000000  1.000000
                       1.000000  1.000000  1.000000  1.000000  1.000000  1.000000
                       1.000000  1.000000  1.000000  1.000000  1.000000  1.000000
                       1.000000  1.000000  1.000000  1.000000  1.000000  1.000000
                       1.000000  1.000000  1.000000  1.000000  1.000000  1.000000
                       1.000000  1.000000  1.000000  1.000000  1.000000  1.000000
                       1.000000  1.000000  1.000000  1.000000  1.000000  1.000000
                       1.000000  1.000000  1.000000  1.000000  1.000000  1.000000
                       1.000000  1.000000  1.000000  1.000000  0.000000  0.000000
                       0.000000  0.000000  0.000000  0.000000  0.000000  0.000000
                       0.000000  0.000000  0.000000  0.000000  0.000000
                       1.000000  1.000000  1.000000  1.000000  1.000000  1.000000
                       1.000000  1.000000  1.000000  1.000000  1.000000  1.000000
                       1.000000  1.000000  1.000000  1.000000  1.000000  1.000000
                       1.000000  1.000000  1.000000  1.000000  1.000000  1.000000
                       1.000000  1.000000  1.000000  1.000000  1.000000  1.000000
                       1.000000  1.000000  1.000000  1.000000  1.000000  1.000000
                       1.000000  1.000000  1.000000  1.000000  1.000000  1.000000
                       1.000000  1.000000  1.000000  1.000000  1.000000  1.000000
                       0.000000  0.000000  0.000000  0.000000  0.000000  0.000000
                       0.000000  0.000000  0.000000  0.000000  0.000000  0.000000
                       0.000000  0.000000  0.000000  0.000000  0.000000
                       1.000000  1.000000  1.000000  1.000000  1.000000  1.000000
                       1.000000  1.000000  1.000000  1.000000  1.000000  1.000000
                       1.000000  1.000000  1.000000  1.000000  1.000000  1.000000
                       1.000000  1.000000  1.000000  1.000000  1.000000  1.000000
                       1.000000  1.000000  1.000000  1.000000  1.000000  1.000000
                       1.000000  1.000000  1.000000  1.000000  1.000000  1.000000
                       1.000000  1.000000  1.000000  1.000000  1.000000  1.000000
                       1.000000  1.000000  1.000000  1.000000  1.000000  1.000000
                       0.000000  0.000000  0.000000  0.000000  0.000000  0.000000
                       0.000000  0.000000  0.000000  0.000000  0.000000  0.000000
                       0.000000  0.000000  0.000000  0.000000  0.000000
                       1.000000  1.000000  1.000000  1.000000  1.000000  1.000000
                       1.000000  1.000000  1.000000  1.000000  1.000000  1.000000
                       1.000000  1.000000  1.000000  1.000000  1.000000  1.000000
                       1.000000  1.000000  1.000000  1.000000  1.000000  1.000000
                       1.000000  1.000000  1.000000  1.000000  1.000000  1.000000
                       1.000000  1.000000  1.000000  1.000000  1.000000  1.000000
                       1.000000  1.000000  1.000000  1.000000  1.000000  1.000000
                       1.000000  1.000000  1.000000  1.000000  1.000000  1.000000
                       0.000000  0.000000  0.000000  0.000000  0.000000  0.000000
                       0.000000  0.000000  0.000000  0.000000  0.000000  0.000000
                       0.000000  0.000000  0.000000  0.000000  0.000000
                       1.000000  1.000000  1.000000  1.000000  1.000000  1.000000
                       1.000000  1.000000  1.000000  1.000000  1.000000  1.000000
                       1.000000  1.000000  1.000000  1.000000  1.000000  1.000000
                       1.000000  1.000000  1.000000  1.000000  1.000000  1.000000
                       1.000000  1.000000  1.000000  1.000000  1.000000  1.000000
                       1.000000  1.000000  1.000000  1.000000  1.000000  1.000000
                       1.000000  1.000000  1.000000  1.000000  1.000000  1.000000
                       1.000000  1.000000  1.000000  1.000000  1.000000  1.000000
                       0.000000  0.000000  0.000000  0.000000  0.000000  0.000000
                       0.000000  0.000000  0.000000  0.000000  0.000000  0.000000
                       0.000000  0.000000  0.000000  0.000000  0.000000
           occopt           3
           prtden           0
           prteig           0
          prtkden           1
            prtwf           0
            rprim      0.0000000000E+00  1.0137047334E+01  0.0000000000E+00
                       9.6126033568E+00  0.0000000000E+00  0.0000000000E+00
                       0.0000000000E+00 -5.7455806104E+00 -9.8776109362E+00
           shiftk      5.00000000E-01  5.00000000E-01  5.00000000E-01
          spgroup           1
           spinat      0.0000000000E+00  0.0000000000E+00  1.0000000000E+00
                       0.0000000000E+00  0.0000000000E+00  1.0000000000E+00
                       0.0000000000E+00  0.0000000000E+00  1.0000000000E+00
                       0.0000000000E+00  0.0000000000E+00  1.0000000000E+00
                       0.0000000000E+00  0.0000000000E+00  1.0000000000E+00
                       0.0000000000E+00  0.0000000000E+00  1.0000000000E+00
                       0.0000000000E+00  0.0000000000E+00  1.0000000000E+00
                       0.0000000000E+00  0.0000000000E+00  1.0000000000E+00
                       0.0000000000E+00  0.0000000000E+00  1.0000000000E+00
                       0.0000000000E+00  0.0000000000E+00  1.0000000000E+00
                       0.0000000000E+00  0.0000000000E+00  1.0000000000E+00
                       0.0000000000E+00  0.0000000000E+00  1.0000000000E+00
                       0.0000000000E+00  0.0000000000E+00  1.0000000000E+00
                       0.0000000000E+00  0.0000000000E+00  1.0000000000E+00
           strten      1.2016735735E-02  1.2597032915E-02  1.1892300540E-02
                      -7.9253677099E-05  2.8704476622E-08  2.0339236421E-08
           toldfe      1.00000000E-06 Hartree
           tsmear      1.00000000E-03 Hartree
            typat      1  1  2  2  2  2  3  3  3  3  3  3  3  3
          usekden           1
              wtk        0.25000    0.25000    0.25000    0.25000
           xangst      2.6451207180E+00 -1.5810237608E+00 -2.7180434230E+00
                       0.0000000000E+00  0.0000000000E+00  0.0000000000E+00
                       3.2825260379E+00  1.2386594092E+00 -2.2333021229E+00
                       6.3740531991E-01  2.7591830180E+00 -4.8474130015E-01
                       2.0077153981E+00  1.1781592572E+00 -3.2027847232E+00
                       4.6528361162E+00 -3.4236435151E-01 -4.9513455459E+00
                       1.5476812931E+00  2.3239541085E+00 -3.6887002181E+00
                       4.1928020111E+00 -1.4881592028E+00 -4.4654300510E+00
                       3.7425601430E+00  9.2864557946E-02 -1.7473866280E+00
                       1.0974394249E+00  3.9049778693E+00 -9.7065679506E-01
                       3.7860988300E+00  2.4258338222E+00 -1.9911244539E+00
                       1.1409781120E+00  1.5720086051E+00 -7.2691896915E-01
                       1.5041426061E+00 -9.0151556738E-03 -3.4449623922E+00
                       4.1492633241E+00  8.4481006140E-01 -4.7091678769E+00
            xcart      4.9985537455E+00 -2.9877019174E+00 -5.1363576868E+00
                       0.0000000000E+00  0.0000000000E+00  0.0000000000E+00
                       6.2030752358E+00  2.3407270554E+00 -4.2203293843E+00
                       1.2045214903E+00  5.2141002545E+00 -9.1602830259E-01
                       3.7940322552E+00  2.2263983371E+00 -6.0523859894E+00
                       8.7925860008E+00 -6.4697486202E-01 -9.3566870711E+00
                       2.9246937849E+00  4.3916368105E+00 -6.9706331985E+00
                       7.9232475304E+00 -2.8122133354E+00 -8.4384398620E+00
                       7.0724137061E+00  1.7548858197E-01 -3.3020821751E+00
                       2.0738599606E+00  7.3793387279E+00 -1.8342755117E+00
                       7.1546899007E+00  4.5841615678E+00 -3.7626799144E+00
                       2.1561361552E+00  2.9706657421E+00 -1.3736777725E+00
                       2.8424175903E+00 -1.7036175269E-02 -6.5100354593E+00
                       7.8409713358E+00  1.5964596503E+00 -8.8990376012E+00
             xred     -2.5179664158E-18  5.0000000000E-01  5.0000000000E-01
                       0.0000000000E+00  0.0000000000E+00  0.0000000000E+00
                       4.5488100000E-01  6.2048700000E-01  4.1082900000E-01
                       5.4511900000E-01  1.2048700000E-01  8.9171000000E-02
                       5.4511900000E-01  3.7951300000E-01  5.8917100000E-01
                       4.5488100000E-01  8.7951300000E-01  9.1082900000E-01
                       8.0116400000E-01  2.9255400000E-01  6.7855800000E-01
                       1.9883600000E-01  7.9255400000E-01  8.2144200000E-01
                       1.9883600000E-01  7.0744600000E-01  3.2144200000E-01
                       8.0116400000E-01  2.0744600000E-01  1.7855800000E-01
                       6.4242900000E-01  7.1567600000E-01  3.6627900000E-01
                       3.5757100000E-01  2.1567600000E-01  1.3372100000E-01
                       3.5757100000E-01  2.8432400000E-01  6.3372100000E-01
                       6.4242900000E-01  7.8432400000E-01  8.6627900000E-01
            znucl       28.00000    6.00000    8.00000

================================================================================


- Timing analysis has been suppressed with timopt=0



================================================================================

 Suggested references for the acknowledgment of ABINIT usage.

 The users of ABINIT have little formal obligations with respect to the ABINIT group
 (those specified in the GNU General Public License, http://www.gnu.org/copyleft/gpl.txt).
 However, it is common practice in the scientific literature,
 to acknowledge the efforts of people that have made the research possible.
 In this spirit, please find below suggested citations of work written by ABINIT developers,
 corresponding to implementations inside of ABINIT that you have used in the present run.
 Note also that it will be of great value to readers of publications presenting these results,
 to read papers enabling them to understand the theoretical formalism and details
 of the ABINIT implementation.
 For information on why they are suggested, see also https://docs.abinit.org/theory/acknowledgments.
-
- [1] Libxc: A library of exchange and correlation functionals for density functional theory.
- M.A.L. Marques, M.J.T. Oliveira, T. Burnus, Computer Physics Communications 183, 2227 (2012).
- Comment: to be cited when LibXC is used (negative value of ixc)
- Strong suggestion to cite this paper.
- DOI and bibtex: see https://docs.abinit.org/theory/bibliography/#marques2012
-
- [2] The Abinit project: Impact, environment and recent developments.
- Computer Phys. Comm. 248, 107042 (2020).
- X.Gonze, B. Amadon, G. Antonius, F.Arnardi, L.Baguet, J.-M.Beuken,
- J.Bieder, F.Bottin, J.Bouchet, E.Bousquet, N.Brouwer, F.Bruneval,
- G.Brunin, T.Cavignac, J.-B. Charraud, Wei Chen, M.Cote, S.Cottenier,
- J.Denier, G.Geneste, Ph.Ghosez, M.Giantomassi, Y.Gillet, O.Gingras,
- D.R.Hamann, G.Hautier, Xu He, N.Helbig, N.Holzwarth, Y.Jia, F.Jollet,
- W.Lafargue-Dit-Hauret, K.Lejaeghere, M.A.L.Marques, A.Martin, C.Martins,
- H.P.C. Miranda, F.Naccarato, K. Persson, G.Petretto, V.Planes, Y.Pouillon,
- S.Prokhorenko, F.Ricci, G.-M.Rignanese, A.H.Romero, M.M.Schmitt, M.Torrent,
- M.J.van Setten, B.Van Troeye, M.J.Verstraete, G.Zerah and J.W.Zwanzig
- Comment: the fifth generic paper describing the ABINIT project.
- Note that a version of this paper, that is not formatted for Computer Phys. Comm. 
- is available at https://www.abinit.org/sites/default/files/ABINIT20.pdf .
- The licence allows the authors to put it on the Web.
- DOI and bibtex: see https://docs.abinit.org/theory/bibliography/#gonze2020
-
- [3] Optimized norm-conserving Vanderbilt pseudopotentials.
- D.R. Hamann, Phys. Rev. B 88, 085117 (2013).
- Comment: Some pseudopotential generated using the ONCVPSP code were used.
- DOI and bibtex: see https://docs.abinit.org/theory/bibliography/#hamann2013
-
- [4] ABINIT: Overview, and focus on selected capabilities
- J. Chem. Phys. 152, 124102 (2020).
- A. Romero, D.C. Allan, B. Amadon, G. Antonius, T. Applencourt, L.Baguet,
- J.Bieder, F.Bottin, J.Bouchet, E.Bousquet, F.Bruneval,
- G.Brunin, D.Caliste, M.Cote,
- J.Denier, C. Dreyer, Ph.Ghosez, M.Giantomassi, Y.Gillet, O.Gingras,
- D.R.Hamann, G.Hautier, F.Jollet, G. Jomard,
- A.Martin, 
- H.P.C. Miranda, F.Naccarato, G.Petretto, N.A. Pike, V.Planes,
- S.Prokhorenko, T. Rangel, F.Ricci, G.-M.Rignanese, M.Royo, M.Stengel, M.Torrent,
- M.J.van Setten, B.Van Troeye, M.J.Verstraete, J.Wiktor, J.W.Zwanziger, and X.Gonze.
- Comment: a global overview of ABINIT, with focus on selected capabilities .
- Note that a version of this paper, that is not formatted for J. Chem. Phys 
- is available at https://www.abinit.org/sites/default/files/ABINIT20_JPC.pdf .
- The licence allows the authors to put it on the Web.
- DOI and bibtex: see https://docs.abinit.org/theory/bibliography/#romero2020
-
- [5] Recent developments in the ABINIT software package.
- Computer Phys. Comm. 205, 106 (2016).
- X.Gonze, F.Jollet, F.Abreu Araujo, D.Adams, B.Amadon, T.Applencourt,
- C.Audouze, J.-M.Beuken, J.Bieder, A.Bokhanchuk, E.Bousquet, F.Bruneval
- D.Caliste, M.Cote, F.Dahm, F.Da Pieve, M.Delaveau, M.Di Gennaro,
- B.Dorado, C.Espejo, G.Geneste, L.Genovese, A.Gerossier, M.Giantomassi,
- Y.Gillet, D.R.Hamann, L.He, G.Jomard, J.Laflamme Janssen, S.Le Roux,
- A.Levitt, A.Lherbier, F.Liu, I.Lukacevic, A.Martin, C.Martins,
- M.J.T.Oliveira, S.Ponce, Y.Pouillon, T.Rangel, G.-M.Rignanese,
- A.H.Romero, B.Rousseau, O.Rubel, A.A.Shukri, M.Stankovski, M.Torrent,
- M.J.Van Setten, B.Van Troeye, M.J.Verstraete, D.Waroquier, J.Wiktor,
- B.Xu, A.Zhou, J.W.Zwanziger.
- Comment: the fourth generic paper describing the ABINIT project.
- Note that a version of this paper, that is not formatted for Computer Phys. Comm. 
- is available at https://www.abinit.org/sites/default/files/ABINIT16.pdf .
- The licence allows the authors to put it on the Web.
- DOI and bibtex: see https://docs.abinit.org/theory/bibliography/#gonze2016
-
- Proc.   0 individual time (sec): cpu=       7552.5  wall=       7614.4

================================================================================

 Calculation completed.
.Delivered   0 WARNINGs and   0 COMMENTs to log file.
+Overall time at end (sec) : cpu=      60692.5  wall=      60915.0
