---------------------------------------
Begin Slurm Prolog: Dec-14-2022 23:02:38
Job ID:    184343
User ID:   bzhang376
Account:   gts-phanish6-coda20
Job name:  Abi104
Partition: cpu-small
QOS:       inferno
---------------------------------------
  ABINIT 9.6.2
  
 DeprecationWarning: 

     The files file has been deprecated in Abinit9 and will be removed in Abinit10.
     Use the syntax `abinit t01.abi` where t01.abi is an input with pseudopotentials e.g.

            pseudos = "al.psp8, as.psp8"


  Give name for formatted input file: 
NiC2O4.in
  Give name for formatted output file:
NiC2O4.out
  Give root name for generic input files:
abi
  Give root name for generic output files:
abo
  Give root name for generic temporary files:
tmp

.Version 9.6.2 of ABINIT 
.(MPI version, prepared for a x86_64_linux_gnu10.3 computer) 

.Copyright (C) 1998-2021 ABINIT group . 
 ABINIT comes with ABSOLUTELY NO WARRANTY.
 It is free software, and you are welcome to redistribute it
 under certain conditions (GNU General Public License,
 see ~abinit/COPYING or http://www.gnu.org/copyleft/gpl.txt).

 ABINIT is a project of the Universite Catholique de Louvain,
 Corning Inc. and other collaborators, see ~abinit/doc/developers/contributors.txt .
 Please read https://docs.abinit.org/theory/acknowledgments for suggested
 acknowledgments of the ABINIT effort.
 For more information, see https://www.abinit.org .

.Starting date : Wed 14 Dec 2022.
- ( at 23h02 )
  

 ++++++++++++++++++++++++++++++++++++++++++++++++++++++++++++++++++++++++++++++

 === Build Information === 
  Version       : 9.6.2
  Build target  : x86_64_linux_gnu10.3
  Build date    : 20221111

 === Compiler Suite === 
  C compiler       : gnu10.3
  C++ compiler     : gnu10.3
  Fortran compiler : gnu10.3
  CFLAGS           : -g -O2 -mtune=native -march=native
  CXXFLAGS         : -g -O2 -mtune=native -march=native
  FCFLAGS          : -g -ffree-line-length-none -fallow-argument-mismatch     -I/usr/loc ...
  FC_LDFLAGS       : 

 === Optimizations === 
  Debug level        : basic
  Optimization level : standard
  Architecture       : intel_xeon

 === Multicore === 
  Parallel build : yes
  Parallel I/O   : 
  openMP support : no
  GPU support    : 

 === Connectors / Fallbacks === 
  LINALG flavor  : openblas
  FFT flavor     : fftw3
  HDF5           : yes
  NetCDF         : yes
  NetCDF Fortran : yes
  LibXC          : yes
  Wannier90      : no

 === Experimental features === 
  Exports             : 
  GW double-precision : 

 ++++++++++++++++++++++++++++++++++++++++++++++++++++++++++++++++++++++++++++++


 ++++++++++++++++++++++++++++++++++++++++++++++++++++++++++++++++++++++++++++++
 Default optimizations:
   -O2 -mtune=native -march=native


 Optimizations for 43_ptgroups:
   -O0


 ++++++++++++++++++++++++++++++++++++++++++++++++++++++++++++++++++++++++++++++


 ++++++++++++++++++++++++++++++++++++++++++++++++++++++++++++++++++++++++++++++
 CPP options activated during the build:

                    CC_GNU                   CXX_GNU                    FC_GNU
 
              HAVE_ATOMPAW HAVE_FC_ALLOCATABLE_DT...             HAVE_FC_ASYNC
 
         HAVE_FC_BACKTRACE  HAVE_FC_COMMAND_ARGUMENT      HAVE_FC_COMMAND_LINE
 
        HAVE_FC_CONTIGUOUS           HAVE_FC_CPUTIME              HAVE_FC_EXIT
 
             HAVE_FC_FLUSH             HAVE_FC_GAMMA            HAVE_FC_GETENV
 
   HAVE_FC_IEEE_ARITHMETIC   HAVE_FC_IEEE_EXCEPTIONS          HAVE_FC_INT_QUAD
 
             HAVE_FC_IOMSG     HAVE_FC_ISO_C_BINDING  HAVE_FC_ISO_FORTRAN_2008
 
        HAVE_FC_LONG_LINES        HAVE_FC_MOVE_ALLOC  HAVE_FC_ON_THE_FLY_SHAPE
 
           HAVE_FC_PRIVATE         HAVE_FC_PROTECTED           HAVE_FC_SHIFTLR
 
         HAVE_FC_STREAM_IO            HAVE_FC_SYSTEM                HAVE_FFTW3
 
          HAVE_FORTRAN2003                 HAVE_HDF5        HAVE_LIBPAW_ABINIT
 
      HAVE_LIBTETRA_ABINIT                HAVE_LIBXC         HAVE_LINALG_AXPBY
 
        HAVE_LINALG_GEMM3M                  HAVE_MPI                 HAVE_MPI2
 
       HAVE_MPI_IALLGATHER       HAVE_MPI_IALLREDUCE        HAVE_MPI_IALLTOALL
 
       HAVE_MPI_IALLTOALLV           HAVE_MPI_IBCAST         HAVE_MPI_IGATHERV
 
        HAVE_MPI_INTEGER16               HAVE_MPI_IO HAVE_MPI_TYPE_CREATE_S...
 
               HAVE_NETCDF       HAVE_NETCDF_FORTRAN             HAVE_OS_LINUX
 
         HAVE_TIMER_ABINIT                                                      
 ++++++++++++++++++++++++++++++++++++++++++++++++++++++++++++++++++++++++++++++

- input  file    -> NiC2O4.in
- output file    -> NiC2O4.out
- root for input  files -> abi
- root for output files -> abo

-instrng: 90 lines of input have been read from file NiC2O4.in


 Please give name of formatted atomic psp file (and finish with a newline character)
 For atom type 1, psp file is ../Ni.pot

 Please give name of formatted atomic psp file (and finish with a newline character)
 For atom type 2, psp file is ../C.pot

 Please give name of formatted atomic psp file (and finish with a newline character)
 For atom type 3, psp file is ../O.pot
  read the values zionpsp= 18.0 , pspcod=   8 , lmax=   2
  read the values zionpsp=  4.0 , pspcod=   8 , lmax=   1
  read the values zionpsp=  6.0 , pspcod=   8 , lmax=   1

 inpspheads: deduce mpsang = 3, n1xccc = 0.

======================================================= 
 invars1m : enter jdtset= 0

 symlatt: the Bravais lattice is mP (primitive monoclinic)
  xred   is defined in input file
 ingeo: takes atomic coordinates from input array xred

 symlatt: the Bravais lattice is mP (primitive monoclinic)

 symlatt: the Bravais lattice is mP (primitive monoclinic)

--- !COMMENT
src_file: m_symfind.F90
src_line: 1020
message: |
    The Bravais lattice determined only from the primitive
    vectors, bravais(1)=  2, is more symmetric
    than the real one, iholohedry=  1, obtained by taking into
    account the atomic positions. Start deforming the primitive vector set.
...


 symlatt: the Bravais lattice is aP (primitive triclinic)
 symspgr: spgroup=   1  P1   (=C1^1)
 initocc_chkneu: initialized the occupation numbers for occopt= 3
    spin up   values:
 getmpw sequential formula gave: 204413

 ====================================================================================================
 Searching for all possible proc distributions for this input with #CPUs<=10:

 ~~~~~~~~~~~~~~~~~~~~~~~~~~~~~~~~~~~~~~~~~~~~~~~~~~~~~~~~~~~~~~~~~~~~~~~~~~~~~
 |       np_spkpt|       npfft|      npband|      bandpp|  #MPI(proc)|    WEIGHT|
 |    1<<    8|    1<<   10|    1<<   10|    1<<   65|    1<<   10|  <=    10|
 ~~~~~~~~~~~~~~~~~~~~~~~~~~~~~~~~~~~~~~~~~~~~~~~~~~~~~~~~~~~~~~~~~~~~~~~~~~~~~
 |           8|           1|           1|           1|           8|     7.767|
 |           1|           2|           5|           1|          10|     6.684|
 |           5|           2|           1|           1|          10|     6.574|
 |           4|           2|           1|           1|           8|     5.917|
 |           2|           1|           5|           1|          10|     5.002|
 |           3|           3|           1|           1|           9|     4.841|
 |           7|           1|           1|           1|           7|     4.788|
 |           2|           5|           1|           1|          10|     4.632|
 |           6|           1|           1|           1|           6|     4.560|
 |           5|           1|           1|           1|           5|     4.275|
 ~~~~~~~~~~~~~~~~~~~~~~~~~~~~~~~~~~~~~~~~~~~~~~~~~~~~~~~~~~~~~~~~~~~~~~~~~~~~~
 Only the best possible choices for nproc are printed...

 >>> Possible (best) choices for the number of bands (nband) are:
     with: np_spkpt=8 npfft=1
     nband=    64 using      8 CPUs =     8 MPI x  1 threads (npband=    1)
     nband=    66 using      8 CPUs =     8 MPI x  1 threads (npband=    1)
     nband=    65 using      8 CPUs =     8 MPI x  1 threads (npband=    1)
 >>> The present nband value (    65) seems to be the best choice!
 ====================================================================================================


 For input ecut=  2.500000E+02 best grid ngfft=     160     144     180
       max ecut=  2.559682E+02

 ==== FFT mesh ====
  FFT mesh divisions ........................   160  144  180
  Augmented FFT divisions ...................   161  145  180
  FFT algorithm .............................   312
  FFT cache size ............................    16
 getmpw: optimal value of mpw= 204443

 Symmetries : space group P1 (#  1); Bravais aP (primitive triclinic)

 getdim_nloc : deduce lmnmax  =  18, lnmax  =   6,
                      lmnmaxso=  18, lnmaxso=   6.
memory: analysis of memory needs
================================================================================
 Values of the parameters that define the memory need of the present run
     intxc =       0    ionmov =       0      iscf =       7    lmnmax =       6
     lnmax =       6     mgfft =     180  mpssoang =       3    mqgrid =    7312
     natom =      14  nloc_mem =       1    nspden =       2   nspinor =       1
    nsppol =       2      nsym =       1    n1xccc =       0    ntypat =       3
    occopt =       3   xclevel =       2
-    mband =          65        mffmem =           1         mkmem =           1
       mpw =      204443          nfft =     4147200          nkpt =           4
================================================================================
P This job should need less than                    2437.399 Mbytes of memory.
  Rough estimation (10% accuracy) of disk space for files :
_ WF disk file :   1622.169 Mbytes ; DEN or POT disk file :     63.283 Mbytes.
================================================================================

 Biggest array : f_fftgr(disk), with   1012.5020 MBytes.
 memana : allocated an array of   1012.502 Mbytes, for testing purposes.
 memana: allocated    2437.399Mbytes, for testing purposes. 
 The job will continue.
--------------------------------------------------------------------------------
------------- Echo of variables that govern the present computation ------------
--------------------------------------------------------------------------------
-
- outvars: echo of selected default values                                      
-   iomode0 =  0 , fftalg0 =312 , wfoptalg0 =  0
-
- outvars: echo of global parameters not present in the input file              
-  max_nthreads =    0
-
 -outvars: echo values of preprocessed input variables --------
 
 These variables are accessible in NetCDF format (abo_OUT.nc)

            acell      1.0400000000E+00  1.0400000000E+00  1.0400000000E+00 Bohr
              amu      5.86900000E+01  1.20110000E+01  1.59994000E+01
        autoparal           1
           diemac      1.00000000E+00
           diemix      4.00000000E-01
             ecut      2.50000000E+02 Hartree
           ecutsm      5.00000000E-01 Hartree
-          fftalg         312
              ixc     -263267
              kpt      2.50000000E-01  2.50000000E-01  2.50000000E-01
                      -2.50000000E-01  2.50000000E-01  2.50000000E-01
                       2.50000000E-01 -2.50000000E-01  2.50000000E-01
                      -2.50000000E-01 -2.50000000E-01  2.50000000E-01
         kptrlatt        2    0    0      0    2    0      0    0    2
          kptrlen      1.99942150E+01
P           mkmem           1
            natom          14
            nband          65
            ngfft         160     144     180
             nkpt           4
-        np_spkpt           8
           nspden           2
           nsppol           2
            nstep          60
             nsym           1
           ntypat           3
              occ      1.000000  1.000000  1.000000  1.000000  1.000000  1.000000
                       1.000000  1.000000  1.000000  1.000000  1.000000  1.000000
                       1.000000  1.000000  1.000000  1.000000  1.000000  1.000000
                       1.000000  1.000000  1.000000  1.000000  1.000000  1.000000
                       1.000000  1.000000  1.000000  1.000000  1.000000  1.000000
                       1.000000  1.000000  1.000000  1.000000  1.000000  1.000000
                       1.000000  1.000000  1.000000  1.000000  1.000000  1.000000
                       1.000000  1.000000  1.000000  1.000000  1.000000  1.000000
                       1.000000  1.000000  0.000000  0.000000  0.000000  0.000000
                       0.000000  0.000000  0.000000  0.000000  0.000000  0.000000
                       0.000000  0.000000  0.000000  0.000000  0.000000
                       1.000000  1.000000  1.000000  1.000000  1.000000  1.000000
                       1.000000  1.000000  1.000000  1.000000  1.000000  1.000000
                       1.000000  1.000000  1.000000  1.000000  1.000000  1.000000
                       1.000000  1.000000  1.000000  1.000000  1.000000  1.000000
                       1.000000  1.000000  1.000000  1.000000  1.000000  1.000000
                       1.000000  1.000000  1.000000  1.000000  1.000000  1.000000
                       1.000000  1.000000  1.000000  1.000000  1.000000  1.000000
                       1.000000  1.000000  1.000000  1.000000  1.000000  1.000000
                       1.000000  1.000000  0.000000  0.000000  0.000000  0.000000
                       0.000000  0.000000  0.000000  0.000000  0.000000  0.000000
                       0.000000  0.000000  0.000000  0.000000  0.000000
                       1.000000  1.000000  1.000000  1.000000  1.000000  1.000000
                       1.000000  1.000000  1.000000  1.000000  1.000000  1.000000
                       1.000000  1.000000  1.000000  1.000000  1.000000  1.000000
                       1.000000  1.000000  1.000000  1.000000  1.000000  1.000000
                       1.000000  1.000000  1.000000  1.000000  1.000000  1.000000
                       1.000000  1.000000  1.000000  1.000000  1.000000  1.000000
                       1.000000  1.000000  1.000000  1.000000  1.000000  1.000000
                       1.000000  1.000000  1.000000  1.000000  1.000000  1.000000
                       1.000000  1.000000  0.000000  0.000000  0.000000  0.000000
                       0.000000  0.000000  0.000000  0.000000  0.000000  0.000000
                       0.000000  0.000000  0.000000  0.000000  0.000000
                       1.000000  1.000000  1.000000  1.000000  1.000000  1.000000
                       1.000000  1.000000  1.000000  1.000000  1.000000  1.000000
                       1.000000  1.000000  1.000000  1.000000  1.000000  1.000000
                       1.000000  1.000000  1.000000  1.000000  1.000000  1.000000
                       1.000000  1.000000  1.000000  1.000000  1.000000  1.000000
                       1.000000  1.000000  1.000000  1.000000  1.000000  1.000000
                       1.000000  1.000000  1.000000  1.000000  1.000000  1.000000
                       1.000000  1.000000  1.000000  1.000000  1.000000  1.000000
                       1.000000  1.000000  0.000000  0.000000  0.000000  0.000000
                       0.000000  0.000000  0.000000  0.000000  0.000000  0.000000
                       0.000000  0.000000  0.000000  0.000000  0.000000
                       1.000000  1.000000  1.000000  1.000000  1.000000  1.000000
                       1.000000  1.000000  1.000000  1.000000  1.000000  1.000000
                       1.000000  1.000000  1.000000  1.000000  1.000000  1.000000
                       1.000000  1.000000  1.000000  1.000000  1.000000  1.000000
                       1.000000  1.000000  1.000000  1.000000  1.000000  1.000000
                       1.000000  1.000000  1.000000  1.000000  1.000000  1.000000
                       1.000000  1.000000  1.000000  1.000000  1.000000  1.000000
                       1.000000  1.000000  1.000000  1.000000  1.000000  1.000000
                       1.000000  1.000000  0.000000  0.000000  0.000000  0.000000
                       0.000000  0.000000  0.000000  0.000000  0.000000  0.000000
                       0.000000  0.000000  0.000000  0.000000  0.000000
                       1.000000  1.000000  1.000000  1.000000  1.000000  1.000000
                       1.000000  1.000000  1.000000  1.000000  1.000000  1.000000
                       1.000000  1.000000  1.000000  1.000000  1.000000  1.000000
                       1.000000  1.000000  1.000000  1.000000  1.000000  1.000000
                       1.000000  1.000000  1.000000  1.000000  1.000000  1.000000
                       1.000000  1.000000  1.000000  1.000000  1.000000  1.000000
                       1.000000  1.000000  1.000000  1.000000  1.000000  1.000000
                       1.000000  1.000000  1.000000  1.000000  1.000000  1.000000
                       1.000000  1.000000  0.000000  0.000000  0.000000  0.000000
                       0.000000  0.000000  0.000000  0.000000  0.000000  0.000000
                       0.000000  0.000000  0.000000  0.000000  0.000000
                       1.000000  1.000000  1.000000  1.000000  1.000000  1.000000
                       1.000000  1.000000  1.000000  1.000000  1.000000  1.000000
                       1.000000  1.000000  1.000000  1.000000  1.000000  1.000000
                       1.000000  1.000000  1.000000  1.000000  1.000000  1.000000
                       1.000000  1.000000  1.000000  1.000000  1.000000  1.000000
                       1.000000  1.000000  1.000000  1.000000  1.000000  1.000000
                       1.000000  1.000000  1.000000  1.000000  1.000000  1.000000
                       1.000000  1.000000  1.000000  1.000000  1.000000  1.000000
                       1.000000  1.000000  0.000000  0.000000  0.000000  0.000000
                       0.000000  0.000000  0.000000  0.000000  0.000000  0.000000
                       0.000000  0.000000  0.000000  0.000000  0.000000
                       1.000000  1.000000  1.000000  1.000000  1.000000  1.000000
                       1.000000  1.000000  1.000000  1.000000  1.000000  1.000000
                       1.000000  1.000000  1.000000  1.000000  1.000000  1.000000
                       1.000000  1.000000  1.000000  1.000000  1.000000  1.000000
                       1.000000  1.000000  1.000000  1.000000  1.000000  1.000000
                       1.000000  1.000000  1.000000  1.000000  1.000000  1.000000
                       1.000000  1.000000  1.000000  1.000000  1.000000  1.000000
                       1.000000  1.000000  1.000000  1.000000  1.000000  1.000000
                       1.000000  1.000000  0.000000  0.000000  0.000000  0.000000
                       0.000000  0.000000  0.000000  0.000000  0.000000  0.000000
                       0.000000  0.000000  0.000000  0.000000  0.000000
           occopt           3
           prtden           0
           prteig           0
          prtkden           1
            prtwf           0
            rprim      0.0000000000E+00  1.0137047334E+01  0.0000000000E+00
                       9.6126033568E+00  0.0000000000E+00  0.0000000000E+00
                       0.0000000000E+00 -5.7455806104E+00 -9.8776109362E+00
           shiftk      5.00000000E-01  5.00000000E-01  5.00000000E-01
          spgroup           1
           spinat      0.0000000000E+00  0.0000000000E+00  1.0000000000E+00
                       0.0000000000E+00  0.0000000000E+00  1.0000000000E+00
                       0.0000000000E+00  0.0000000000E+00  1.0000000000E+00
                       0.0000000000E+00  0.0000000000E+00  1.0000000000E+00
                       0.0000000000E+00  0.0000000000E+00  1.0000000000E+00
                       0.0000000000E+00  0.0000000000E+00  1.0000000000E+00
                       0.0000000000E+00  0.0000000000E+00  1.0000000000E+00
                       0.0000000000E+00  0.0000000000E+00  1.0000000000E+00
                       0.0000000000E+00  0.0000000000E+00  1.0000000000E+00
                       0.0000000000E+00  0.0000000000E+00  1.0000000000E+00
                       0.0000000000E+00  0.0000000000E+00  1.0000000000E+00
                       0.0000000000E+00  0.0000000000E+00  1.0000000000E+00
                       0.0000000000E+00  0.0000000000E+00  1.0000000000E+00
                       0.0000000000E+00  0.0000000000E+00  1.0000000000E+00
           toldfe      1.00000000E-06 Hartree
           tsmear      1.00000000E-03 Hartree
            typat      1  1  2  2  2  2  3  3  3  3  3  3  3  3
          usekden           1
              wtk        0.25000    0.25000    0.25000    0.25000
           xangst      2.6451207180E+00 -1.5810237608E+00 -2.7180434230E+00
                       0.0000000000E+00  0.0000000000E+00  0.0000000000E+00
                       3.2825260379E+00  1.2386594092E+00 -2.2333021229E+00
                       6.3740531991E-01  2.7591830180E+00 -4.8474130015E-01
                       2.0077153981E+00  1.1781592572E+00 -3.2027847232E+00
                       4.6528361162E+00 -3.4236435151E-01 -4.9513455459E+00
                       1.5476812931E+00  2.3239541085E+00 -3.6887002181E+00
                       4.1928020111E+00 -1.4881592028E+00 -4.4654300510E+00
                       3.7425601430E+00  9.2864557946E-02 -1.7473866280E+00
                       1.0974394249E+00  3.9049778693E+00 -9.7065679506E-01
                       3.7860988300E+00  2.4258338222E+00 -1.9911244539E+00
                       1.1409781120E+00  1.5720086051E+00 -7.2691896915E-01
                       1.5041426061E+00 -9.0151556738E-03 -3.4449623922E+00
                       4.1492633241E+00  8.4481006140E-01 -4.7091678769E+00
            xcart      4.9985537455E+00 -2.9877019174E+00 -5.1363576868E+00
                       0.0000000000E+00  0.0000000000E+00  0.0000000000E+00
                       6.2030752358E+00  2.3407270554E+00 -4.2203293843E+00
                       1.2045214903E+00  5.2141002545E+00 -9.1602830259E-01
                       3.7940322552E+00  2.2263983371E+00 -6.0523859894E+00
                       8.7925860008E+00 -6.4697486202E-01 -9.3566870711E+00
                       2.9246937849E+00  4.3916368105E+00 -6.9706331985E+00
                       7.9232475304E+00 -2.8122133354E+00 -8.4384398620E+00
                       7.0724137061E+00  1.7548858197E-01 -3.3020821751E+00
                       2.0738599606E+00  7.3793387279E+00 -1.8342755117E+00
                       7.1546899007E+00  4.5841615678E+00 -3.7626799144E+00
                       2.1561361552E+00  2.9706657421E+00 -1.3736777725E+00
                       2.8424175903E+00 -1.7036175269E-02 -6.5100354593E+00
                       7.8409713358E+00  1.5964596503E+00 -8.8990376012E+00
             xred     -2.5179664158E-18  5.0000000000E-01  5.0000000000E-01
                       0.0000000000E+00  0.0000000000E+00  0.0000000000E+00
                       4.5488100000E-01  6.2048700000E-01  4.1082900000E-01
                       5.4511900000E-01  1.2048700000E-01  8.9171000000E-02
                       5.4511900000E-01  3.7951300000E-01  5.8917100000E-01
                       4.5488100000E-01  8.7951300000E-01  9.1082900000E-01
                       8.0116400000E-01  2.9255400000E-01  6.7855800000E-01
                       1.9883600000E-01  7.9255400000E-01  8.2144200000E-01
                       1.9883600000E-01  7.0744600000E-01  3.2144200000E-01
                       8.0116400000E-01  2.0744600000E-01  1.7855800000E-01
                       6.4242900000E-01  7.1567600000E-01  3.6627900000E-01
                       3.5757100000E-01  2.1567600000E-01  1.3372100000E-01
                       3.5757100000E-01  2.8432400000E-01  6.3372100000E-01
                       6.4242900000E-01  7.8432400000E-01  8.6627900000E-01
            znucl       28.00000    6.00000    8.00000

================================================================================

 chkinp: Checking input parameters for consistency.
 DATA TYPE INFORMATION: 
 REAL:      Data type name: REAL(DP) 
            Kind value:      8
            Precision:      15
            Smallest nonnegligible quantity relative to 1: 0.22204460E-015
            Smallest positive number:                      0.22250739E-307
            Largest representable number:                  0.17976931E+309
 INTEGER:   Data type name: INTEGER(default) 
            Kind value: 4
            Bit size:   32
            Largest representable number: 2147483647
 LOGICAL:   Data type name: LOGICAL 
            Kind value: 4
 CHARACTER: Data type name: CHARACTER             Kind value: 1

  ==== OpenMP parallelism is OFF ====
 
  ==== Using MPI-2 specifications ==== 
  MPI-IO support is ON
  xmpi_tag_ub ................    268435455
  xmpi_bsize_ch ..............            1
  xmpi_bsize_int .............            4
  xmpi_bsize_sp ..............            4
  xmpi_bsize_dp ..............            8
  xmpi_bsize_spc .............            8
  xmpi_bsize_dpc .............           16
  xmpio_bsize_frm ............            4
  xmpi_address_kind ..........            8
  xmpi_offset_kind ...........            8
  MPI_WTICK ..................    1.0000000000000001E-009

================================================================================
== DATASET  1 ==================================================================
-   mpi_nproc: 8, omp_nthreads: -1 (-1 if OMP is not activated)


--- !COMMENT
src_file: m_xgScalapack.F90
src_line: 236
message: |
    xgScalapack in auto mode
...


 getdim_nloc : deduce lmnmax  =  18, lnmax  =   6,
                      lmnmaxso=  18, lnmaxso=   6.
 SCAN exchange of Sun, Ruzsinszky, and Perdew
 J. Sun, A. Ruzsinszky, and J. P. Perdew, Phys. Rev. Lett. 115, 036402 (2015)
 SCAN correlation of Sun, Ruzsinszky, and Perdew
 J. Sun, A. Ruzsinszky, and J. P. Perdew, Phys. Rev. Lett. 115, 036402 (2015)

 Unit cell volume ucvol=  1.0826908E+03 bohr^3
 Angles (23,13,12)=  9.00000000E+01  1.20185586E+02  9.00000000E+01 degrees

 getcut: wavevector=  0.0000  0.0000  0.0000  ngfft= 160 144 180
         ecut(hartree)=    250.000   => boxcut(ratio)=   2.02373
- pspini: atom type   1  psp file is ../Ni.pot
- pspatm: opening atomic psp file    ../Ni.pot
- Ni    ONCVPSP-4.0.1  r_core=   2.18101   2.18101   2.24723
- 28.00000  18.00000    200312                znucl, zion, pspdat
    8   11    2    4       600   0.00000      pspcod,pspxc,lmax,lloc,mmax,r2well

--- !WARNING
src_file: m_pspini.F90
src_line: 1039
message: |
    Pseudopotential file pspxc: 11, not equal to input ixc: -263267.
    These parameters must agree to get the same xc in ABINIT code as in psp construction.
    Action: check psp design or input file.
    Assume experienced user. Execution will continue.
...

    5.99000000000000    0.00000000000000    0.00000000000000   rchrg,fchrg,qchrg
     nproj     2     2     2
     extension_switch     1
  valence charge integrates to:    17.968162128216466     
  pspatm : epsatm=   38.47316822
         --- l  ekb(1:nproj) -->
             0   -3.440917   -0.196078
             1   -5.406223   -1.725842
             2   -7.274254   -2.503385
 pspatm: atomic psp has been read  and splines computed

- pspini: atom type   2  psp file is ../C.pot
- pspatm: opening atomic psp file    ../C.pot
- C     ONCVPSP-4.0.1  r_core=   1.42727   1.38521
-  6.00000   4.00000    200312                znucl, zion, pspdat
    8   11    1    4       600   0.00000      pspcod,pspxc,lmax,lloc,mmax,r2well

--- !WARNING
src_file: m_pspini.F90
src_line: 1039
message: |
    Pseudopotential file pspxc: 11, not equal to input ixc: -263267.
    These parameters must agree to get the same xc in ABINIT code as in psp construction.
    Action: check psp design or input file.
    Assume experienced user. Execution will continue.
...

    5.99000000000000    0.00000000000000    0.00000000000000   rchrg,fchrg,qchrg
     nproj     2     2
     extension_switch     1
  valence charge integrates to:    3.9929454931231523     
  pspatm : epsatm=    2.26998732
         --- l  ekb(1:nproj) -->
             0    7.571912    0.889574
             1   -3.169338   -0.856835
 pspatm: atomic psp has been read  and splines computed

- pspini: atom type   3  psp file is ../O.pot
- pspatm: opening atomic psp file    ../O.pot
- O     ONCVPSP-4.0.1  r_core=   1.28926   1.47061
-  8.00000   6.00000    200312                znucl, zion, pspdat
    8   11    1    4       600   0.00000      pspcod,pspxc,lmax,lloc,mmax,r2well

--- !WARNING
src_file: m_pspini.F90
src_line: 1039
message: |
    Pseudopotential file pspxc: 11, not equal to input ixc: -263267.
    These parameters must agree to get the same xc in ABINIT code as in psp construction.
    Action: check psp design or input file.
    Assume experienced user. Execution will continue.
...

    5.99000000000000    0.00000000000000    0.00000000000000   rchrg,fchrg,qchrg
     nproj     2     2
     extension_switch     1
  valence charge integrates to:    5.9990318584788609     
  pspatm : epsatm=    3.44365635
         --- l  ekb(1:nproj) -->
             0    9.802940    1.339963
             1   -3.661294   -1.085684
 pspatm: atomic psp has been read  and splines computed

   1.13575537E+04                                ecore*ucvol(ha*bohr**3)
 ==== Info on pseudopotentials ====
  Norm-conserving pseudopotentials
  Number of pseudopotentials ..    3
  Number of types of atoms   ..    3
  Scalar calculation (no spin-orbit term)
  Nonlocal part applied using Legendre polynomials
  Max number of non-local projectors over l and type   2
  Highest angular momentum +1 .......   3
  Max number of (l,n)   components ..   6
  Max number of (l,m,n) components ..   6

 Info on the Q-grid used for form factors in spline form: 
   Number of q-points for radial functions ffspl ..   7312
   Number of q-points for vlspl ...................   7312
   vloc is computed in Reciprocal Space
   model core charge treated in real-space

  XC functional for type 1 is 11
  Pseudo valence available: yes
  XC functional for type 2 is 11
  Pseudo valence available: yes
  XC functional for type 3 is 11
  Pseudo valence available: yes

 newkpt: spin channel isppol2 =     1
 wfconv:    65 bands initialized randomly with npw=204443, for ikpt=     1
 newkpt: spin channel isppol2 =     2
_setup2: Arith. and geom. avg. npw (full set) are  204413.000  204412.998
 initro: for itypat=  1, take pseudo charge density from pp file
 initro: for itypat=  2, take pseudo charge density from pp file
 initro: for itypat=  3, take pseudo charge density from pp file

================================================================================

 getcut: wavevector=  0.0000  0.0000  0.0000  ngfft= 160 144 180
         ecut(hartree)=    250.000   => boxcut(ratio)=   2.02373

 1/G**2 cut-off applied in the following step : cutoff-mode = CRYSTAL

 1/G**2 cut-off applied in the following step : cutoff-mode = CRYSTAL

 1/G**2 cut-off applied in the following step : cutoff-mode = CRYSTAL

 ITER STEP NUMBER     1
 Max number of non-self-consistent loops: 2
 newocc: new Fermi energy is       0.112542 , with nelect=    100.000000, Number of bisection calls: 49
 mkrho: echo density (plane-wave part only)
 Total charge density [el/Bohr^3]
      Maximum=    2.9211E+00  at reduced coord.    0.0375    0.5000    0.5556
      Minimum=    2.1712E-03  at reduced coord.    0.9250    0.0278    0.5167
   Integrated=    1.0000E+02
 Spin up density      [el/Bohr^3]
      Maximum=    1.4703E+00  at reduced coord.    0.0438    0.5000    0.5556
      Minimum=    1.1440E-03  at reduced coord.    0.9188    0.0347    0.5111
   Integrated=    5.0830E+01
 Spin down density    [el/Bohr^3]
      Maximum=    1.4514E+00  at reduced coord.    0.0375    0.5000    0.5556
      Minimum=    1.0225E-03  at reduced coord.    0.9375    0.0278    0.5222
   Integrated=    4.9170E+01
 Magnetization (spin up - spin down) [el/Bohr^3]
      Maximum=    6.6472E-02  at reduced coord.    0.1813    0.6806    0.2833
      Minimum=   -5.3289E-03  at reduced coord.    0.0813    0.4792    0.4667
   Integrated=    1.6592E+00
 Relative magnetization (=zeta, between -1 and 1)
      Maximum=    2.4954E-01  at reduced coord.    0.4375    0.5972    0.3778
      Minimum=   -7.7339E-02  at reduced coord.    0.0625    0.2569    0.1278
 mkrho: echo density (plane-wave part only)
 Total kinetic energy density [Ha/Bohr^3]
      Maximum=    1.9695E+01  at reduced coord.    0.0063    0.5000    0.5111
      Minimum=    1.2763E-03  at reduced coord.    0.0125    0.9653    0.4667
   Integrated=    2.3234E+02
 Spin up density      [Ha/Bohr^3]
      Maximum=    9.8851E+00  at reduced coord.    0.0063    0.5000    0.5111
      Minimum=    6.2182E-04  at reduced coord.    0.0125    0.9653    0.4667
   Integrated=    1.1965E+02
 Spin down density    [Ha/Bohr^3]
      Maximum=    9.8096E+00  at reduced coord.    0.0063    0.5000    0.5111
      Minimum=    6.5135E-04  at reduced coord.    0.9688    0.9861    0.4889
   Integrated=    1.1269E+02
 Magnetization (spin up - spin down) [Ha/Bohr^3]
      Maximum=    7.5441E-01  at reduced coord.    0.6438    0.7153    0.3667
      Minimum=   -1.1742E-03  at reduced coord.    0.1000    0.4444    0.4389
   Integrated=    6.9582E+00
 Relative magnetization (=zeta, between -1 and 1)
      Maximum=    2.3518E-01  at reduced coord.    0.5000    0.5000    0.5000
      Minimum=   -6.7409E-02  at reduced coord.    0.8438    0.5903    0.1889
 Total charge density [el/Bohr^3]
      Maximum=    2.9211E+00  at reduced coord.    0.0375    0.5000    0.5556
      Minimum=    2.1712E-03  at reduced coord.    0.9250    0.0278    0.5167
   Integrated=    1.0000E+02
 Spin up density      [el/Bohr^3]
      Maximum=    1.4703E+00  at reduced coord.    0.0438    0.5000    0.5556
      Minimum=    1.1440E-03  at reduced coord.    0.9188    0.0347    0.5111
   Integrated=    5.0830E+01
 Spin down density    [el/Bohr^3]
      Maximum=    1.4514E+00  at reduced coord.    0.0375    0.5000    0.5556
      Minimum=    1.0225E-03  at reduced coord.    0.9375    0.0278    0.5222
   Integrated=    4.9170E+01
 Magnetization (spin up - spin down) [el/Bohr^3]
      Maximum=    6.6472E-02  at reduced coord.    0.1813    0.6806    0.2833
      Minimum=   -5.3289E-03  at reduced coord.    0.0813    0.4792    0.4667
   Integrated=    1.6592E+00
 Relative magnetization (=zeta, between -1 and 1)
      Maximum=    2.4954E-01  at reduced coord.    0.4375    0.5972    0.3778
      Minimum=   -7.7339E-02  at reduced coord.    0.0625    0.2569    0.1278

 1/G**2 cut-off applied in the following step : cutoff-mode = CRYSTAL
 ETOT  1  -455.39962141304    -4.55E+02 3.24E-01 3.68E+05 1.659
 scprqt: <Vxc>= -3.8760151E-01 hartree

 Simple mixing update:
  residual square of the potential:    58837.186550088853
{SCF_istep: 1 , Vnl|psi>: 650 , wall_time: ' 08:41 [minutes] '} <<< TIME

 ITER STEP NUMBER     2
 Max number of non-self-consistent loops: 2
 newocc: new Fermi energy is       0.037055 , with nelect=    100.000000, Number of bisection calls: 48
 mkrho: echo density (plane-wave part only)
 Total charge density [el/Bohr^3]
      Maximum=    3.2796E+00  at reduced coord.    0.9438    0.9722    0.9833
      Minimum=    1.1072E-03  at reduced coord.    0.9938    0.0000    0.5000
   Integrated=    1.0000E+02
 Spin up density      [el/Bohr^3]
      Maximum=    1.6480E+00  at reduced coord.    0.9438    0.9722    0.9833
      Minimum=    5.0864E-04  at reduced coord.    0.0000    0.0000    0.5000
   Integrated=    5.1999E+01
 Spin down density    [el/Bohr^3]
      Maximum=    1.6316E+00  at reduced coord.    0.9438    0.9722    0.9833
      Minimum=    5.6560E-04  at reduced coord.    0.0000    0.5000    0.0056
   Integrated=    4.8001E+01
 Magnetization (spin up - spin down) [el/Bohr^3]
      Maximum=    1.9204E-01  at reduced coord.    0.6125    0.7500    0.3333
      Minimum=   -2.1432E-03  at reduced coord.    0.0000    0.0069    0.0056
   Integrated=    3.9971E+00
 Relative magnetization (=zeta, between -1 and 1)
      Maximum=    2.5025E-01  at reduced coord.    0.6250    0.6875    0.3278
      Minimum=   -8.3775E-02  at reduced coord.    0.9938    0.0486    0.5167
 mkrho: echo density (plane-wave part only)
 Total kinetic energy density [Ha/Bohr^3]
      Maximum=    2.1937E+01  at reduced coord.    0.0000    0.9722    0.9944
      Minimum=    6.9628E-04  at reduced coord.    0.0000    0.5000    0.0000
   Integrated=    2.4588E+02
 Spin up density      [Ha/Bohr^3]
      Maximum=    1.1007E+01  at reduced coord.    0.9938    0.9722    0.9889
      Minimum=    3.4177E-04  at reduced coord.    0.0000    0.0000    0.5000
   Integrated=    1.2855E+02
 Spin down density    [Ha/Bohr^3]
      Maximum=    1.0932E+01  at reduced coord.    0.0063    0.9722    0.9944
      Minimum=    3.3773E-04  at reduced coord.    0.0000    0.5000    0.0000
   Integrated=    1.1733E+02
 Magnetization (spin up - spin down) [Ha/Bohr^3]
      Maximum=    2.2518E+00  at reduced coord.    0.6438    0.7153    0.3667
      Minimum=   -2.2468E-02  at reduced coord.    0.0563    0.9167    0.0556
   Integrated=    1.1224E+01
 Relative magnetization (=zeta, between -1 and 1)
      Maximum=    3.5445E-01  at reduced coord.    0.6875    0.7292    0.3667
      Minimum=   -3.6934E-02  at reduced coord.    0.9188    0.7222    0.8278
 Total charge density [el/Bohr^3]
      Maximum=    3.2796E+00  at reduced coord.    0.9438    0.9722    0.9833
      Minimum=    1.1072E-03  at reduced coord.    0.9938    0.0000    0.5000
   Integrated=    1.0000E+02
 Spin up density      [el/Bohr^3]
      Maximum=    1.6480E+00  at reduced coord.    0.9438    0.9722    0.9833
      Minimum=    5.0864E-04  at reduced coord.    0.0000    0.0000    0.5000
   Integrated=    5.1999E+01
 Spin down density    [el/Bohr^3]
      Maximum=    1.6316E+00  at reduced coord.    0.9438    0.9722    0.9833
      Minimum=    5.6560E-04  at reduced coord.    0.0000    0.5000    0.0056
   Integrated=    4.8001E+01
 Magnetization (spin up - spin down) [el/Bohr^3]
      Maximum=    1.9204E-01  at reduced coord.    0.6125    0.7500    0.3333
      Minimum=   -2.1432E-03  at reduced coord.    0.0000    0.0069    0.0056
   Integrated=    3.9971E+00
 Relative magnetization (=zeta, between -1 and 1)
      Maximum=    2.5025E-01  at reduced coord.    0.6250    0.6875    0.3278
      Minimum=   -8.3775E-02  at reduced coord.    0.9938    0.0486    0.5167
 ETOT  2  -455.65797960586    -2.58E-01 3.99E-02 1.11E+06 3.997
 scprqt: <Vxc>= -3.8404629E-01 hartree

 Pulay update with  1 previous iterations:
 mixing of old trial potential: alpha(m:m-4)=  0.348      0.652
{SCF_istep: 2 , Vnl|psi>: 650 , wall_time: ' 08:25 [minutes] '} <<< TIME

 ITER STEP NUMBER     3
 newocc: new Fermi energy is       0.040987 , with nelect=    100.000000, Number of bisection calls: 48
 mkrho: echo density (plane-wave part only)
 Total charge density [el/Bohr^3]
      Maximum=    3.1444E+00  at reduced coord.    0.0500    0.9792    0.9944
      Minimum=    9.9766E-04  at reduced coord.    0.0000    0.5000    0.0000
   Integrated=    1.0000E+02
 Spin up density      [el/Bohr^3]
      Maximum=    1.5916E+00  at reduced coord.    0.0563    0.0278    0.0167
      Minimum=    4.5341E-04  at reduced coord.    0.0000    0.5000    0.0000
   Integrated=    5.0936E+01
 Spin down density    [el/Bohr^3]
      Maximum=    1.5668E+00  at reduced coord.    0.9500    0.0208    0.0056
      Minimum=    5.4425E-04  at reduced coord.    0.0000    0.5000    0.0000
   Integrated=    4.9064E+01
 Magnetization (spin up - spin down) [el/Bohr^3]
      Maximum=    3.1165E-01  at reduced coord.    0.9625    0.4653    0.5333
      Minimum=   -4.8042E-02  at reduced coord.    0.0688    0.4514    0.5278
   Integrated=    1.8722E+00
 Relative magnetization (=zeta, between -1 and 1)
      Maximum=    2.0985E-01  at reduced coord.    0.0563    0.5625    0.4389
      Minimum=   -9.7007E-02  at reduced coord.    0.9688    0.0417    0.5222
 mkrho: echo density (plane-wave part only)
 Total kinetic energy density [Ha/Bohr^3]
      Maximum=    2.0893E+01  at reduced coord.    0.0125    0.9792    0.0111
      Minimum=    6.8746E-04  at reduced coord.    0.0000    0.5000    0.0000
   Integrated=    2.3771E+02
 Spin up density      [Ha/Bohr^3]
      Maximum=    1.0496E+01  at reduced coord.    0.0000    0.9722    0.0000
      Minimum=    3.1964E-04  at reduced coord.    0.9938    0.0000    0.5000
   Integrated=    1.2305E+02
 Spin down density    [Ha/Bohr^3]
      Maximum=    1.0404E+01  at reduced coord.    0.0125    0.9792    0.0111
      Minimum=    3.6614E-04  at reduced coord.    0.0000    0.5000    0.0000
   Integrated=    1.1466E+02
 Magnetization (spin up - spin down) [Ha/Bohr^3]
      Maximum=    1.6353E+00  at reduced coord.    0.9938    0.4931    0.4500
      Minimum=   -5.4852E-03  at reduced coord.    0.5938    0.5694    0.3167
   Integrated=    8.3952E+00
 Relative magnetization (=zeta, between -1 and 1)
      Maximum=    2.0726E-01  at reduced coord.    0.9063    0.4028    0.5944
      Minimum=   -9.2236E-02  at reduced coord.    0.6813    0.9028    0.4278
 Total charge density [el/Bohr^3]
      Maximum=    3.1444E+00  at reduced coord.    0.0500    0.9792    0.9944
      Minimum=    9.9766E-04  at reduced coord.    0.0000    0.5000    0.0000
   Integrated=    1.0000E+02
 Spin up density      [el/Bohr^3]
      Maximum=    1.5916E+00  at reduced coord.    0.0563    0.0278    0.0167
      Minimum=    4.5341E-04  at reduced coord.    0.0000    0.5000    0.0000
   Integrated=    5.0936E+01
 Spin down density    [el/Bohr^3]
      Maximum=    1.5668E+00  at reduced coord.    0.9500    0.0208    0.0056
      Minimum=    5.4425E-04  at reduced coord.    0.0000    0.5000    0.0000
   Integrated=    4.9064E+01
 Magnetization (spin up - spin down) [el/Bohr^3]
      Maximum=    3.1165E-01  at reduced coord.    0.9625    0.4653    0.5333
      Minimum=   -4.8042E-02  at reduced coord.    0.0688    0.4514    0.5278
   Integrated=    1.8722E+00
 Relative magnetization (=zeta, between -1 and 1)
      Maximum=    2.0985E-01  at reduced coord.    0.0563    0.5625    0.4389
      Minimum=   -9.7007E-02  at reduced coord.    0.9688    0.0417    0.5222
 ETOT  3  -457.72830700991    -2.07E+00 1.84E-02 5.25E+05 1.872
 scprqt: <Vxc>= -3.8421909E-01 hartree

 Pulay update with  2 previous iterations:
 mixing of old trial potential: alpha(m:m-4)=  0.227      0.196      0.577
{SCF_istep: 3 , Vnl|psi>: 318 , wall_time: ' 04:22 [minutes] '} <<< TIME

 ITER STEP NUMBER     4
 newocc: new Fermi energy is       0.022197 , with nelect=    100.000000, Number of bisection calls: 48
 mkrho: echo density (plane-wave part only)
 Total charge density [el/Bohr^3]
      Maximum=    3.0874E+00  at reduced coord.    0.9875    0.9444    0.9778
      Minimum=    1.0111E-03  at reduced coord.    0.0000    0.5000    0.0000
   Integrated=    1.0000E+02
 Spin up density      [el/Bohr^3]
      Maximum=    1.5890E+00  at reduced coord.    0.9438    0.5347    0.4778
      Minimum=    4.6598E-04  at reduced coord.    0.0000    0.5000    0.0000
   Integrated=    5.1943E+01
 Spin down density    [el/Bohr^3]
      Maximum=    1.5365E+00  at reduced coord.    0.9875    0.9444    0.9778
      Minimum=    5.4507E-04  at reduced coord.    0.0000    0.5000    0.0000
   Integrated=    4.8057E+01
 Magnetization (spin up - spin down) [el/Bohr^3]
      Maximum=    2.6976E-01  at reduced coord.    0.0688    0.4583    0.5278
      Minimum=   -1.9882E-03  at reduced coord.    0.0063    0.5208    0.5000
   Integrated=    3.8863E+00
 Relative magnetization (=zeta, between -1 and 1)
      Maximum=    1.9506E-01  at reduced coord.    0.3313    0.1806    0.1111
      Minimum=   -7.8804E-02  at reduced coord.    0.0000    0.4653    0.0167
 mkrho: echo density (plane-wave part only)
 Total kinetic energy density [Ha/Bohr^3]
      Maximum=    2.0406E+01  at reduced coord.    0.0125    0.9792    0.0111
      Minimum=    6.8063E-04  at reduced coord.    0.9938    0.0000    0.5000
   Integrated=    2.4128E+02
 Spin up density      [Ha/Bohr^3]
      Maximum=    1.0348E+01  at reduced coord.    0.0188    0.9792    0.0111
      Minimum=    3.2399E-04  at reduced coord.    0.0063    0.5000    0.0000
   Integrated=    1.2756E+02
 Spin down density    [Ha/Bohr^3]
      Maximum=    1.0079E+01  at reduced coord.    0.0125    0.9861    0.0167
      Minimum=    3.5494E-04  at reduced coord.    0.9938    0.0000    0.5000
   Integrated=    1.1372E+02
 Magnetization (spin up - spin down) [Ha/Bohr^3]
      Maximum=    1.2788E+00  at reduced coord.    0.3563    0.2153    0.1333
      Minimum=   -1.7524E-01  at reduced coord.    0.0250    0.5417    0.4611
   Integrated=    1.3840E+01
 Relative magnetization (=zeta, between -1 and 1)
      Maximum=    2.3001E-01  at reduced coord.    0.8875    0.3819    0.6056
      Minimum=   -5.4579E-02  at reduced coord.    0.0188    0.5000    0.9889
 Total charge density [el/Bohr^3]
      Maximum=    3.0874E+00  at reduced coord.    0.9875    0.9444    0.9778
      Minimum=    1.0111E-03  at reduced coord.    0.0000    0.5000    0.0000
   Integrated=    1.0000E+02
 Spin up density      [el/Bohr^3]
      Maximum=    1.5890E+00  at reduced coord.    0.9438    0.5347    0.4778
      Minimum=    4.6598E-04  at reduced coord.    0.0000    0.5000    0.0000
   Integrated=    5.1943E+01
 Spin down density    [el/Bohr^3]
      Maximum=    1.5365E+00  at reduced coord.    0.9875    0.9444    0.9778
      Minimum=    5.4507E-04  at reduced coord.    0.0000    0.5000    0.0000
   Integrated=    4.8057E+01
 Magnetization (spin up - spin down) [el/Bohr^3]
      Maximum=    2.6976E-01  at reduced coord.    0.0688    0.4583    0.5278
      Minimum=   -1.9882E-03  at reduced coord.    0.0063    0.5208    0.5000
   Integrated=    3.8863E+00
 Relative magnetization (=zeta, between -1 and 1)
      Maximum=    1.9506E-01  at reduced coord.    0.3313    0.1806    0.1111
      Minimum=   -7.8804E-02  at reduced coord.    0.0000    0.4653    0.0167
 ETOT  4  -457.90583492374    -1.78E-01 5.43E-03 3.68E+05 3.886
 scprqt: <Vxc>= -3.8302109E-01 hartree

 Pulay update with  3 previous iterations:
 mixing of old trial potential: alpha(m:m-4)=  0.232      0.181      0.723E-01  0.515
{SCF_istep: 4 , Vnl|psi>: 317 , wall_time: ' 04:22 [minutes] '} <<< TIME

 ITER STEP NUMBER     5
 newocc: new Fermi energy is       0.031367 , with nelect=    100.000000, Number of bisection calls: 49
 mkrho: echo density (plane-wave part only)
 Total charge density [el/Bohr^3]
      Maximum=    3.0745E+00  at reduced coord.    0.9875    0.9444    0.9778
      Minimum=    1.0126E-03  at reduced coord.    0.0000    0.0000    0.5000
   Integrated=    1.0000E+02
 Spin up density      [el/Bohr^3]
      Maximum=    1.5590E+00  at reduced coord.    0.0563    0.0278    0.0167
      Minimum=    4.6443E-04  at reduced coord.    0.0000    0.0000    0.5000
   Integrated=    5.1388E+01
 Spin down density    [el/Bohr^3]
      Maximum=    1.5324E+00  at reduced coord.    0.9813    0.9722    0.0333
      Minimum=    5.4822E-04  at reduced coord.    0.0000    0.0000    0.5000
   Integrated=    4.8612E+01
 Magnetization (spin up - spin down) [el/Bohr^3]
      Maximum=    2.6548E-01  at reduced coord.    0.0313    0.5417    0.4667
      Minimum=   -2.3628E-03  at reduced coord.    0.0125    0.4931    0.5222
   Integrated=    2.7763E+00
 Relative magnetization (=zeta, between -1 and 1)
      Maximum=    1.6631E-01  at reduced coord.    0.9500    0.4375    0.5611
      Minimum=   -8.3743E-02  at reduced coord.    0.9938    0.4792    0.0111
 mkrho: echo density (plane-wave part only)
 Total kinetic energy density [Ha/Bohr^3]
      Maximum=    2.0234E+01  at reduced coord.    0.0125    0.9792    0.0111
      Minimum=    6.8115E-04  at reduced coord.    0.0000    0.0000    0.5000
   Integrated=    2.3841E+02
 Spin up density      [Ha/Bohr^3]
      Maximum=    1.0275E+01  at reduced coord.    0.0000    0.9861    0.9833
      Minimum=    3.2090E-04  at reduced coord.    0.9938    0.0000    0.5000
   Integrated=    1.2496E+02
 Spin down density    [Ha/Bohr^3]
      Maximum=    9.9862E+00  at reduced coord.    0.0125    0.9861    0.0167
      Minimum=    3.6011E-04  at reduced coord.    0.0000    0.0000    0.5000
   Integrated=    1.1345E+02
 Magnetization (spin up - spin down) [Ha/Bohr^3]
      Maximum=    1.2006E+00  at reduced coord.    0.9500    0.4722    0.4833
      Minimum=   -1.4268E-02  at reduced coord.    0.0000    0.5000    0.5000
   Integrated=    1.1507E+01
 Relative magnetization (=zeta, between -1 and 1)
      Maximum=    2.0483E-01  at reduced coord.    0.0938    0.6042    0.4000
      Minimum=   -6.5089E-02  at reduced coord.    0.9938    0.4583    0.0278
 Total charge density [el/Bohr^3]
      Maximum=    3.0745E+00  at reduced coord.    0.9875    0.9444    0.9778
      Minimum=    1.0126E-03  at reduced coord.    0.0000    0.0000    0.5000
   Integrated=    1.0000E+02
 Spin up density      [el/Bohr^3]
      Maximum=    1.5590E+00  at reduced coord.    0.0563    0.0278    0.0167
      Minimum=    4.6443E-04  at reduced coord.    0.0000    0.0000    0.5000
   Integrated=    5.1388E+01
 Spin down density    [el/Bohr^3]
      Maximum=    1.5324E+00  at reduced coord.    0.9813    0.9722    0.0333
      Minimum=    5.4822E-04  at reduced coord.    0.0000    0.0000    0.5000
   Integrated=    4.8612E+01
 Magnetization (spin up - spin down) [el/Bohr^3]
      Maximum=    2.6548E-01  at reduced coord.    0.0313    0.5417    0.4667
      Minimum=   -2.3628E-03  at reduced coord.    0.0125    0.4931    0.5222
   Integrated=    2.7763E+00
 Relative magnetization (=zeta, between -1 and 1)
      Maximum=    1.6631E-01  at reduced coord.    0.9500    0.4375    0.5611
      Minimum=   -8.3743E-02  at reduced coord.    0.9938    0.4792    0.0111
 ETOT  5  -458.41033950879    -5.05E-01 3.21E-03 2.47E+05 2.776
 scprqt: <Vxc>= -3.8372848E-01 hartree

 Pulay update with  4 previous iterations:
 mixing of old trial potential: alpha(m:m-4)=  0.314      0.556E-01  0.781E-01  0.683E-01  0.484
{SCF_istep: 5 , Vnl|psi>: 319 , wall_time: ' 04:22 [minutes] '} <<< TIME

 ITER STEP NUMBER     6
 newocc: new Fermi energy is       0.030621 , with nelect=    100.000000, Number of bisection calls: 48
 mkrho: echo density (plane-wave part only)
 Total charge density [el/Bohr^3]
      Maximum=    3.0746E+00  at reduced coord.    0.9875    0.9444    0.9778
      Minimum=    1.0102E-03  at reduced coord.    0.0000    0.5000    0.0000
   Integrated=    1.0000E+02
 Spin up density      [el/Bohr^3]
      Maximum=    1.5558E+00  at reduced coord.    0.9438    0.9792    0.9944
      Minimum=    4.6429E-04  at reduced coord.    0.0000    0.5000    0.0000
   Integrated=    5.1313E+01
 Spin down density    [el/Bohr^3]
      Maximum=    1.5337E+00  at reduced coord.    0.9813    0.9722    0.0333
      Minimum=    5.4593E-04  at reduced coord.    0.0000    0.5000    0.0000
   Integrated=    4.8687E+01
 Magnetization (spin up - spin down) [el/Bohr^3]
      Maximum=    2.7632E-01  at reduced coord.    0.0313    0.5417    0.4611
      Minimum=   -3.3820E-03  at reduced coord.    0.9938    0.5000    0.4833
   Integrated=    2.6268E+00
 Relative magnetization (=zeta, between -1 and 1)
      Maximum=    1.7886E-01  at reduced coord.    0.9563    0.4375    0.5611
      Minimum=   -8.1118E-02  at reduced coord.    0.9938    0.4792    0.0111
 mkrho: echo density (plane-wave part only)
 Total kinetic energy density [Ha/Bohr^3]
      Maximum=    2.0213E+01  at reduced coord.    0.0125    0.9861    0.0167
      Minimum=    6.8093E-04  at reduced coord.    0.0000    0.0000    0.5000
   Integrated=    2.3818E+02
 Spin up density      [Ha/Bohr^3]
      Maximum=    1.0262E+01  at reduced coord.    0.0125    0.9792    0.0111
      Minimum=    3.2109E-04  at reduced coord.    0.0063    0.5000    0.0000
   Integrated=    1.2463E+02
 Spin down density    [Ha/Bohr^3]
      Maximum=    9.9754E+00  at reduced coord.    0.0125    0.9861    0.0167
      Minimum=    3.5954E-04  at reduced coord.    0.0000    0.0000    0.5000
   Integrated=    1.1355E+02
 Magnetization (spin up - spin down) [Ha/Bohr^3]
      Maximum=    1.2149E+00  at reduced coord.    0.9500    0.4722    0.4833
      Minimum=   -1.3701E-01  at reduced coord.    0.0250    0.5417    0.4611
   Integrated=    1.1082E+01
 Relative magnetization (=zeta, between -1 and 1)
      Maximum=    2.1641E-01  at reduced coord.    0.0875    0.6042    0.4000
      Minimum=   -6.3132E-02  at reduced coord.    0.9938    0.4583    0.0278
 Total charge density [el/Bohr^3]
      Maximum=    3.0746E+00  at reduced coord.    0.9875    0.9444    0.9778
      Minimum=    1.0102E-03  at reduced coord.    0.0000    0.5000    0.0000
   Integrated=    1.0000E+02
 Spin up density      [el/Bohr^3]
      Maximum=    1.5558E+00  at reduced coord.    0.9438    0.9792    0.9944
      Minimum=    4.6429E-04  at reduced coord.    0.0000    0.5000    0.0000
   Integrated=    5.1313E+01
 Spin down density    [el/Bohr^3]
      Maximum=    1.5337E+00  at reduced coord.    0.9813    0.9722    0.0333
      Minimum=    5.4593E-04  at reduced coord.    0.0000    0.5000    0.0000
   Integrated=    4.8687E+01
 Magnetization (spin up - spin down) [el/Bohr^3]
      Maximum=    2.7632E-01  at reduced coord.    0.0313    0.5417    0.4611
      Minimum=   -3.3820E-03  at reduced coord.    0.9938    0.5000    0.4833
   Integrated=    2.6268E+00
 Relative magnetization (=zeta, between -1 and 1)
      Maximum=    1.7886E-01  at reduced coord.    0.9563    0.4375    0.5611
      Minimum=   -8.1118E-02  at reduced coord.    0.9938    0.4792    0.0111
 ETOT  6  -458.48040174975    -7.01E-02 1.78E-03 2.19E+05 2.627
 scprqt: <Vxc>= -3.8371530E-01 hartree

 Pulay update with  5 previous iterations:
 mixing of old trial potential: alpha(m:m-4)=   1.10     -0.686      0.443E-01  0.216E-01  0.709E-01
{SCF_istep: 6 , Vnl|psi>: 305 , wall_time: ' 04:12 [minutes] '} <<< TIME

 ITER STEP NUMBER     7
 newocc: new Fermi energy is       0.032403 , with nelect=    100.000000, Number of bisection calls: 46
 mkrho: echo density (plane-wave part only)
 Total charge density [el/Bohr^3]
      Maximum=    3.0739E+00  at reduced coord.    0.9813    0.9722    0.0333
      Minimum=    1.0107E-03  at reduced coord.    0.0000    0.0000    0.5000
   Integrated=    1.0000E+02
 Spin up density      [el/Bohr^3]
      Maximum=    1.5596E+00  at reduced coord.    0.0563    0.0278    0.0167
      Minimum=    4.6758E-04  at reduced coord.    0.0000    0.5000    0.0000
   Integrated=    5.1302E+01
 Spin down density    [el/Bohr^3]
      Maximum=    1.5344E+00  at reduced coord.    0.9813    0.9722    0.0333
      Minimum=    5.4273E-04  at reduced coord.    0.0000    0.0000    0.5000
   Integrated=    4.8698E+01
 Magnetization (spin up - spin down) [el/Bohr^3]
      Maximum=    3.0222E-01  at reduced coord.    0.0313    0.5417    0.4611
      Minimum=   -4.1083E-03  at reduced coord.    0.9938    0.5000    0.4833
   Integrated=    2.6030E+00
 Relative magnetization (=zeta, between -1 and 1)
      Maximum=    1.9964E-01  at reduced coord.    0.9563    0.4375    0.5611
      Minimum=   -7.6951E-02  at reduced coord.    0.9938    0.4792    0.0111
 mkrho: echo density (plane-wave part only)
 Total kinetic energy density [Ha/Bohr^3]
      Maximum=    2.0187E+01  at reduced coord.    0.0125    0.9861    0.0167
      Minimum=    6.8027E-04  at reduced coord.    0.0000    0.0000    0.5000
   Integrated=    2.3775E+02
 Spin up density      [Ha/Bohr^3]
      Maximum=    1.0260E+01  at reduced coord.    0.0000    0.9861    0.9833
      Minimum=    3.2181E-04  at reduced coord.    0.9938    0.0000    0.5000
   Integrated=    1.2454E+02
 Spin down density    [Ha/Bohr^3]
      Maximum=    9.9584E+00  at reduced coord.    0.0125    0.9861    0.0111
      Minimum=    3.5842E-04  at reduced coord.    0.0000    0.0000    0.5000
   Integrated=    1.1321E+02
 Magnetization (spin up - spin down) [Ha/Bohr^3]
      Maximum=    1.3556E+00  at reduced coord.    0.0438    0.5347    0.5167
      Minimum=   -1.7773E-01  at reduced coord.    0.0250    0.5417    0.4611
   Integrated=    1.1329E+01
 Relative magnetization (=zeta, between -1 and 1)
      Maximum=    2.2400E-01  at reduced coord.    0.0875    0.6042    0.4000
      Minimum=   -6.0214E-02  at reduced coord.    0.9938    0.4583    0.0278
 Total charge density [el/Bohr^3]
      Maximum=    3.0739E+00  at reduced coord.    0.9813    0.9722    0.0333
      Minimum=    1.0107E-03  at reduced coord.    0.0000    0.0000    0.5000
   Integrated=    1.0000E+02
 Spin up density      [el/Bohr^3]
      Maximum=    1.5596E+00  at reduced coord.    0.0563    0.0278    0.0167
      Minimum=    4.6758E-04  at reduced coord.    0.0000    0.5000    0.0000
   Integrated=    5.1302E+01
 Spin down density    [el/Bohr^3]
      Maximum=    1.5344E+00  at reduced coord.    0.9813    0.9722    0.0333
      Minimum=    5.4273E-04  at reduced coord.    0.0000    0.0000    0.5000
   Integrated=    4.8698E+01
 Magnetization (spin up - spin down) [el/Bohr^3]
      Maximum=    3.0222E-01  at reduced coord.    0.0313    0.5417    0.4611
      Minimum=   -4.1083E-03  at reduced coord.    0.9938    0.5000    0.4833
   Integrated=    2.6030E+00
 Relative magnetization (=zeta, between -1 and 1)
      Maximum=    1.9964E-01  at reduced coord.    0.9563    0.4375    0.5611
      Minimum=   -7.6951E-02  at reduced coord.    0.9938    0.4792    0.0111
 ETOT  7  -458.55051621546    -7.01E-02 1.57E-03 1.95E+05 2.603
 scprqt: <Vxc>= -3.8375095E-01 hartree

 Pulay update with  6 previous iterations:
 mixing of old trial potential: alpha(m:m-4)=   1.75     -0.669     -0.612      0.187     -0.796E-01
{SCF_istep: 7 , Vnl|psi>: 319 , wall_time: ' 04:22 [minutes] '} <<< TIME

 ITER STEP NUMBER     8
 newocc: new Fermi energy is       0.034892 , with nelect=    100.000000, Number of bisection calls: 49
 mkrho: echo density (plane-wave part only)
 Total charge density [el/Bohr^3]
      Maximum=    3.0700E+00  at reduced coord.    0.0625    0.9792    0.0222
      Minimum=    1.0133E-03  at reduced coord.    0.0000    0.5000    0.0000
   Integrated=    1.0000E+02
 Spin up density      [el/Bohr^3]
      Maximum=    1.5707E+00  at reduced coord.    0.0563    0.0278    0.0167
      Minimum=    4.7226E-04  at reduced coord.    0.0000    0.5000    0.0000
   Integrated=    5.1861E+01
 Spin down density    [el/Bohr^3]
      Maximum=    1.5329E+00  at reduced coord.    0.9750    0.9792    0.0333
      Minimum=    5.4107E-04  at reduced coord.    0.0000    0.5000    0.0000
   Integrated=    4.8139E+01
 Magnetization (spin up - spin down) [el/Bohr^3]
      Maximum=    4.5610E-01  at reduced coord.    0.0250    0.5417    0.4611
      Minimum=   -5.6407E-03  at reduced coord.    0.9938    0.5000    0.4833
   Integrated=    3.7219E+00
 Relative magnetization (=zeta, between -1 and 1)
      Maximum=    3.1601E-01  at reduced coord.    0.0688    0.5903    0.6056
      Minimum=   -6.8158E-02  at reduced coord.    0.9938    0.4792    0.0111
 mkrho: echo density (plane-wave part only)
 Total kinetic energy density [Ha/Bohr^3]
      Maximum=    1.9913E+01  at reduced coord.    0.0125    0.9861    0.0167
      Minimum=    6.8255E-04  at reduced coord.    0.0000    0.5000    0.0000
   Integrated=    2.3695E+02
 Spin up density      [Ha/Bohr^3]
      Maximum=    1.0254E+01  at reduced coord.    0.0000    0.9792    0.9889
      Minimum=    3.2433E-04  at reduced coord.    0.0063    0.5000    0.0000
   Integrated=    1.2679E+02
 Spin down density    [Ha/Bohr^3]
      Maximum=    9.7902E+00  at reduced coord.    0.0063    0.9931    0.0111
      Minimum=    3.5755E-04  at reduced coord.    0.0000    0.0000    0.5000
   Integrated=    1.1016E+02
 Magnetization (spin up - spin down) [Ha/Bohr^3]
      Maximum=    2.1450E+00  at reduced coord.    0.0250    0.4792    0.4722
      Minimum=   -1.8985E-01  at reduced coord.    0.9625    0.4514    0.4444
   Integrated=    1.6625E+01
 Relative magnetization (=zeta, between -1 and 1)
      Maximum=    2.9192E-01  at reduced coord.    0.8875    0.3611    0.3333
      Minimum=   -5.3687E-02  at reduced coord.    0.9688    0.4514    0.0333
 Total charge density [el/Bohr^3]
      Maximum=    3.0700E+00  at reduced coord.    0.0625    0.9792    0.0222
      Minimum=    1.0133E-03  at reduced coord.    0.0000    0.5000    0.0000
   Integrated=    1.0000E+02
 Spin up density      [el/Bohr^3]
      Maximum=    1.5707E+00  at reduced coord.    0.0563    0.0278    0.0167
      Minimum=    4.7226E-04  at reduced coord.    0.0000    0.5000    0.0000
   Integrated=    5.1861E+01
 Spin down density    [el/Bohr^3]
      Maximum=    1.5329E+00  at reduced coord.    0.9750    0.9792    0.0333
      Minimum=    5.4107E-04  at reduced coord.    0.0000    0.5000    0.0000
   Integrated=    4.8139E+01
 Magnetization (spin up - spin down) [el/Bohr^3]
      Maximum=    4.5610E-01  at reduced coord.    0.0250    0.5417    0.4611
      Minimum=   -5.6407E-03  at reduced coord.    0.9938    0.5000    0.4833
   Integrated=    3.7219E+00
 Relative magnetization (=zeta, between -1 and 1)
      Maximum=    3.1601E-01  at reduced coord.    0.0688    0.5903    0.6056
      Minimum=   -6.8158E-02  at reduced coord.    0.9938    0.4792    0.0111
 ETOT  8  -458.80753654849    -2.57E-01 1.22E-03 1.26E+05 3.722
 scprqt: <Vxc>= -3.8378965E-01 hartree

 Pulay update with  7 previous iterations:
 mixing of old trial potential: alpha(m:m-4)=  0.324       1.06     -0.294     -0.562      0.908E-01
{SCF_istep: 8 , Vnl|psi>: 319 , wall_time: ' 04:22 [minutes] '} <<< TIME

 ITER STEP NUMBER     9
 newocc: new Fermi energy is       0.033192 , with nelect=    100.000000, Number of bisection calls: 45
 mkrho: echo density (plane-wave part only)
 Total charge density [el/Bohr^3]
      Maximum=    3.0835E+00  at reduced coord.    0.0625    0.9792    0.0222
      Minimum=    1.0153E-03  at reduced coord.    0.0000    0.5000    0.0000
   Integrated=    1.0000E+02
 Spin up density      [el/Bohr^3]
      Maximum=    1.5730E+00  at reduced coord.    0.0563    0.0278    0.0167
      Minimum=    4.7368E-04  at reduced coord.    0.0000    0.5000    0.0000
   Integrated=    5.1697E+01
 Spin down density    [el/Bohr^3]
      Maximum=    1.5432E+00  at reduced coord.    0.9750    0.9792    0.0333
      Minimum=    5.4159E-04  at reduced coord.    0.0000    0.5000    0.0000
   Integrated=    4.8303E+01
 Magnetization (spin up - spin down) [el/Bohr^3]
      Maximum=    4.3220E-01  at reduced coord.    0.0250    0.5417    0.4611
      Minimum=   -7.9100E-03  at reduced coord.    0.0000    0.5486    0.4944
   Integrated=    3.3941E+00
 Relative magnetization (=zeta, between -1 and 1)
      Maximum=    3.0694E-01  at reduced coord.    0.0688    0.5833    0.6056
      Minimum=   -6.7057E-02  at reduced coord.    0.9938    0.4792    0.0111
 mkrho: echo density (plane-wave part only)
 Total kinetic energy density [Ha/Bohr^3]
      Maximum=    2.0092E+01  at reduced coord.    0.0125    0.9861    0.0167
      Minimum=    6.8353E-04  at reduced coord.    0.0000    0.5000    0.0000
   Integrated=    2.3739E+02
 Spin up density      [Ha/Bohr^3]
      Maximum=    1.0276E+01  at reduced coord.    0.0000    0.9861    0.9833
      Minimum=    3.2489E-04  at reduced coord.    0.0000    0.5000    0.0000
   Integrated=    1.2618E+02
 Spin down density    [Ha/Bohr^3]
      Maximum=    9.8755E+00  at reduced coord.    0.0063    0.9861    0.0111
      Minimum=    3.5792E-04  at reduced coord.    0.0000    0.0000    0.5000
   Integrated=    1.1120E+02
 Magnetization (spin up - spin down) [Ha/Bohr^3]
      Maximum=    2.0182E+00  at reduced coord.    0.0188    0.4861    0.4667
      Minimum=   -2.0179E-01  at reduced coord.    0.0375    0.9514    0.0556
   Integrated=    1.4983E+01
 Relative magnetization (=zeta, between -1 and 1)
      Maximum=    2.8704E-01  at reduced coord.    0.8813    0.3611    0.3333
      Minimum=   -5.2746E-02  at reduced coord.    0.9625    0.4583    0.0278
 Total charge density [el/Bohr^3]
      Maximum=    3.0835E+00  at reduced coord.    0.0625    0.9792    0.0222
      Minimum=    1.0153E-03  at reduced coord.    0.0000    0.5000    0.0000
   Integrated=    1.0000E+02
 Spin up density      [el/Bohr^3]
      Maximum=    1.5730E+00  at reduced coord.    0.0563    0.0278    0.0167
      Minimum=    4.7368E-04  at reduced coord.    0.0000    0.5000    0.0000
   Integrated=    5.1697E+01
 Spin down density    [el/Bohr^3]
      Maximum=    1.5432E+00  at reduced coord.    0.9750    0.9792    0.0333
      Minimum=    5.4159E-04  at reduced coord.    0.0000    0.5000    0.0000
   Integrated=    4.8303E+01
 Magnetization (spin up - spin down) [el/Bohr^3]
      Maximum=    4.3220E-01  at reduced coord.    0.0250    0.5417    0.4611
      Minimum=   -7.9100E-03  at reduced coord.    0.0000    0.5486    0.4944
   Integrated=    3.3941E+00
 Relative magnetization (=zeta, between -1 and 1)
      Maximum=    3.0694E-01  at reduced coord.    0.0688    0.5833    0.6056
      Minimum=   -6.7057E-02  at reduced coord.    0.9938    0.4792    0.0111
 ETOT  9  -458.72458593577     8.30E-02 1.00E-03 1.38E+05 3.394
 scprqt: <Vxc>= -3.8371070E-01 hartree

 Pulay update with  7 previous iterations:
 mixing of old trial potential: alpha(m:m-4)=   1.98     -0.659       1.31      0.171E-01  -1.14
{SCF_istep: 9 , Vnl|psi>: 306 , wall_time: ' 04:12 [minutes] '} <<< TIME

 ITER STEP NUMBER    10
 newocc: new Fermi energy is       0.108539 , with nelect=    100.000000, Number of bisection calls: 22
 mkrho: echo density (plane-wave part only)
 Total charge density [el/Bohr^3]
      Maximum=    3.0550E+00  at reduced coord.    0.9375    0.4792    0.4778
      Minimum=    9.9633E-04  at reduced coord.    0.0000    0.0000    0.5000
   Integrated=    1.0000E+02
 Spin up density      [el/Bohr^3]
      Maximum=    1.5825E+00  at reduced coord.    0.9438    0.5347    0.4778
      Minimum=    4.8286E-04  at reduced coord.    0.0000    0.0000    0.5000
   Integrated=    5.2000E+01
 Spin down density    [el/Bohr^3]
      Maximum=    1.5345E+00  at reduced coord.    0.9375    0.4792    0.4778
      Minimum=    5.1348E-04  at reduced coord.    0.0000    0.0000    0.5000
   Integrated=    4.8000E+01
 Magnetization (spin up - spin down) [el/Bohr^3]
      Maximum=    6.5448E-01  at reduced coord.    0.0688    0.0417    0.0278
      Minimum=   -1.9425E-02  at reduced coord.    0.0188    0.4792    0.4722
   Integrated=    4.0000E+00
 Relative magnetization (=zeta, between -1 and 1)
      Maximum=    5.4086E-01  at reduced coord.    0.9250    0.0972    0.8889
      Minimum=   -3.5242E-02  at reduced coord.    0.9625    0.3819    0.0333
 mkrho: echo density (plane-wave part only)
 Total kinetic energy density [Ha/Bohr^3]
      Maximum=    1.9482E+01  at reduced coord.    0.9875    0.5069    0.4944
      Minimum=    6.7330E-04  at reduced coord.    0.0000    0.0000    0.5000
   Integrated=    2.3374E+02
 Spin up density      [Ha/Bohr^3]
      Maximum=    1.0137E+01  at reduced coord.    0.0125    0.5208    0.5000
      Minimum=    3.2707E-04  at reduced coord.    0.0000    0.0000    0.5000
   Integrated=    1.2677E+02
 Spin down density    [Ha/Bohr^3]
      Maximum=    9.7401E+00  at reduced coord.    0.0000    0.5000    0.5000
      Minimum=    3.4623E-04  at reduced coord.    0.0000    0.0000    0.5000
   Integrated=    1.0697E+02
 Magnetization (spin up - spin down) [Ha/Bohr^3]
      Maximum=    2.9060E+00  at reduced coord.    0.0250    0.0208    0.9722
      Minimum=   -1.6795E-01  at reduced coord.    0.0000    0.5000    0.5000
   Integrated=    1.9801E+01
 Relative magnetization (=zeta, between -1 and 1)
      Maximum=    3.1896E-01  at reduced coord.    0.8938    0.3750    0.3444
      Minimum=   -3.2503E-02  at reduced coord.    0.9813    0.4167    0.0500
 Total charge density [el/Bohr^3]
      Maximum=    3.0550E+00  at reduced coord.    0.9375    0.4792    0.4778
      Minimum=    9.9633E-04  at reduced coord.    0.0000    0.0000    0.5000
   Integrated=    1.0000E+02
 Spin up density      [el/Bohr^3]
      Maximum=    1.5825E+00  at reduced coord.    0.9438    0.5347    0.4778
      Minimum=    4.8286E-04  at reduced coord.    0.0000    0.0000    0.5000
   Integrated=    5.2000E+01
 Spin down density    [el/Bohr^3]
      Maximum=    1.5345E+00  at reduced coord.    0.9375    0.4792    0.4778
      Minimum=    5.1348E-04  at reduced coord.    0.0000    0.0000    0.5000
   Integrated=    4.8000E+01
 Magnetization (spin up - spin down) [el/Bohr^3]
      Maximum=    6.5448E-01  at reduced coord.    0.0688    0.0417    0.0278
      Minimum=   -1.9425E-02  at reduced coord.    0.0188    0.4792    0.4722
   Integrated=    4.0000E+00
 Relative magnetization (=zeta, between -1 and 1)
      Maximum=    5.4086E-01  at reduced coord.    0.9250    0.0972    0.8889
      Minimum=   -3.5242E-02  at reduced coord.    0.9625    0.3819    0.0333
 ETOT 10  -459.00980051225    -2.85E-01 7.06E-03 9.84E+04 4.000
 scprqt: <Vxc>= -3.8358246E-01 hartree

 Pulay update with  7 previous iterations:
 mixing of old trial potential: alpha(m:m-4)=  0.528       1.38     -0.981      0.458       1.11
{SCF_istep: 10 , Vnl|psi>: 318 , wall_time: ' 04:23 [minutes] '} <<< TIME

 ITER STEP NUMBER    11
 newocc: new Fermi energy is       0.084100 , with nelect=    100.000000, Number of bisection calls: 8
 mkrho: echo density (plane-wave part only)
 Total charge density [el/Bohr^3]
      Maximum=    3.0590E+00  at reduced coord.    0.9375    0.4792    0.4778
      Minimum=    1.0174E-03  at reduced coord.    0.0000    0.5000    0.0000
   Integrated=    1.0000E+02
 Spin up density      [el/Bohr^3]
      Maximum=    1.5857E+00  at reduced coord.    0.0563    0.4653    0.5222
      Minimum=    4.9512E-04  at reduced coord.    0.0000    0.5000    0.0000
   Integrated=    5.2000E+01
 Spin down density    [el/Bohr^3]
      Maximum=    1.5359E+00  at reduced coord.    0.9375    0.4792    0.4778
      Minimum=    5.2224E-04  at reduced coord.    0.0000    0.5000    0.0000
   Integrated=    4.8000E+01
 Magnetization (spin up - spin down) [el/Bohr^3]
      Maximum=    6.4777E-01  at reduced coord.    0.0688    0.0417    0.0278
      Minimum=   -2.1275E-02  at reduced coord.    0.0188    0.0208    0.9722
   Integrated=    4.0000E+00
 Relative magnetization (=zeta, between -1 and 1)
      Maximum=    5.2278E-01  at reduced coord.    0.0750    0.9028    0.1111
      Minimum=   -3.0618E-02  at reduced coord.    0.9500    0.4028    0.0278
 mkrho: echo density (plane-wave part only)
 Total kinetic energy density [Ha/Bohr^3]
      Maximum=    1.9510E+01  at reduced coord.    0.9875    0.5139    0.4944
      Minimum=    6.8177E-04  at reduced coord.    0.0000    0.5000    0.0000
   Integrated=    2.3428E+02
 Spin up density      [Ha/Bohr^3]
      Maximum=    1.0161E+01  at reduced coord.    0.9875    0.4792    0.5000
      Minimum=    3.3148E-04  at reduced coord.    0.0000    0.5000    0.0000
   Integrated=    1.2696E+02
 Spin down density    [Ha/Bohr^3]
      Maximum=    9.7452E+00  at reduced coord.    0.0000    0.5000    0.5000
      Minimum=    3.5028E-04  at reduced coord.    0.0063    0.5000    0.0000
   Integrated=    1.0731E+02
 Magnetization (spin up - spin down) [Ha/Bohr^3]
      Maximum=    2.9148E+00  at reduced coord.    0.0250    0.4792    0.4722
      Minimum=   -1.7338E-01  at reduced coord.    0.0000    0.5000    0.5000
   Integrated=    1.9654E+01
 Relative magnetization (=zeta, between -1 and 1)
      Maximum=    3.2107E-01  at reduced coord.    0.1000    0.6250    0.6500
      Minimum=   -2.9852E-02  at reduced coord.    0.9813    0.4444    0.0500
 Total charge density [el/Bohr^3]
      Maximum=    3.0590E+00  at reduced coord.    0.9375    0.4792    0.4778
      Minimum=    1.0174E-03  at reduced coord.    0.0000    0.5000    0.0000
   Integrated=    1.0000E+02
 Spin up density      [el/Bohr^3]
      Maximum=    1.5857E+00  at reduced coord.    0.0563    0.4653    0.5222
      Minimum=    4.9512E-04  at reduced coord.    0.0000    0.5000    0.0000
   Integrated=    5.2000E+01
 Spin down density    [el/Bohr^3]
      Maximum=    1.5359E+00  at reduced coord.    0.9375    0.4792    0.4778
      Minimum=    5.2224E-04  at reduced coord.    0.0000    0.5000    0.0000
   Integrated=    4.8000E+01
 Magnetization (spin up - spin down) [el/Bohr^3]
      Maximum=    6.4777E-01  at reduced coord.    0.0688    0.0417    0.0278
      Minimum=   -2.1275E-02  at reduced coord.    0.0188    0.0208    0.9722
   Integrated=    4.0000E+00
 Relative magnetization (=zeta, between -1 and 1)
      Maximum=    5.2278E-01  at reduced coord.    0.0750    0.9028    0.1111
      Minimum=   -3.0618E-02  at reduced coord.    0.9500    0.4028    0.0278
 ETOT 11  -459.04388744287    -3.41E-02 6.87E-04 6.41E+04 4.000
 scprqt: <Vxc>= -3.8363885E-01 hartree

 Pulay update with  7 previous iterations:
 mixing of old trial potential: alpha(m:m-4)=  0.817     -0.117      0.691     -0.431     -0.380
{SCF_istep: 11 , Vnl|psi>: 318 , wall_time: ' 04:23 [minutes] '} <<< TIME

 ITER STEP NUMBER    12
 newocc: new Fermi energy is       0.077317 , with nelect=    100.000000, Number of bisection calls: 20
 mkrho: echo density (plane-wave part only)
 Total charge density [el/Bohr^3]
      Maximum=    3.0780E+00  at reduced coord.    0.9375    0.4792    0.4778
      Minimum=    1.0261E-03  at reduced coord.    0.0000    0.5000    0.0000
   Integrated=    1.0000E+02
 Spin up density      [el/Bohr^3]
      Maximum=    1.5913E+00  at reduced coord.    0.9438    0.5347    0.4778
      Minimum=    4.9915E-04  at reduced coord.    0.0000    0.5000    0.0000
   Integrated=    5.2000E+01
 Spin down density    [el/Bohr^3]
      Maximum=    1.5460E+00  at reduced coord.    0.9375    0.4792    0.4778
      Minimum=    5.2698E-04  at reduced coord.    0.0000    0.5000    0.0000
   Integrated=    4.8000E+01
 Magnetization (spin up - spin down) [el/Bohr^3]
      Maximum=    6.4246E-01  at reduced coord.    0.0688    0.0417    0.0278
      Minimum=   -2.0388E-02  at reduced coord.    0.0188    0.0208    0.9722
   Integrated=    4.0000E+00
 Relative magnetization (=zeta, between -1 and 1)
      Maximum=    5.3166E-01  at reduced coord.    0.9250    0.0972    0.8889
      Minimum=   -3.0156E-02  at reduced coord.    0.9563    0.0833    0.5167
 mkrho: echo density (plane-wave part only)
 Total kinetic energy density [Ha/Bohr^3]
      Maximum=    1.9648E+01  at reduced coord.    0.0125    0.4861    0.5056
      Minimum=    6.8458E-04  at reduced coord.    0.0000    0.5000    0.0000
   Integrated=    2.3457E+02
 Spin up density      [Ha/Bohr^3]
      Maximum=    1.0229E+01  at reduced coord.    0.9875    0.4861    0.4778
      Minimum=    3.3348E-04  at reduced coord.    0.0000    0.5000    0.0000
   Integrated=    1.2709E+02
 Spin down density    [Ha/Bohr^3]
      Maximum=    9.7947E+00  at reduced coord.    0.0000    0.5000    0.5000
      Minimum=    3.5111E-04  at reduced coord.    0.0000    0.5000    0.0000
   Integrated=    1.0749E+02
 Magnetization (spin up - spin down) [Ha/Bohr^3]
      Maximum=    2.9076E+00  at reduced coord.    0.0250    0.0208    0.9722
      Minimum=   -1.9121E-01  at reduced coord.    0.0000    0.5000    0.5000
   Integrated=    1.9598E+01
 Relative magnetization (=zeta, between -1 and 1)
      Maximum=    3.1968E-01  at reduced coord.    0.1000    0.6250    0.6500
      Minimum=   -2.8142E-02  at reduced coord.    0.9688    0.0764    0.5278
 Total charge density [el/Bohr^3]
      Maximum=    3.0780E+00  at reduced coord.    0.9375    0.4792    0.4778
      Minimum=    1.0261E-03  at reduced coord.    0.0000    0.5000    0.0000
   Integrated=    1.0000E+02
 Spin up density      [el/Bohr^3]
      Maximum=    1.5913E+00  at reduced coord.    0.9438    0.5347    0.4778
      Minimum=    4.9915E-04  at reduced coord.    0.0000    0.5000    0.0000
   Integrated=    5.2000E+01
 Spin down density    [el/Bohr^3]
      Maximum=    1.5460E+00  at reduced coord.    0.9375    0.4792    0.4778
      Minimum=    5.2698E-04  at reduced coord.    0.0000    0.5000    0.0000
   Integrated=    4.8000E+01
 Magnetization (spin up - spin down) [el/Bohr^3]
      Maximum=    6.4246E-01  at reduced coord.    0.0688    0.0417    0.0278
      Minimum=   -2.0388E-02  at reduced coord.    0.0188    0.0208    0.9722
   Integrated=    4.0000E+00
 Relative magnetization (=zeta, between -1 and 1)
      Maximum=    5.3166E-01  at reduced coord.    0.9250    0.0972    0.8889
      Minimum=   -3.0156E-02  at reduced coord.    0.9563    0.0833    0.5167
 ETOT 12  -459.04403621417    -1.49E-04 1.25E-03 4.05E+04 4.000
 scprqt: <Vxc>= -3.8376397E-01 hartree

 Pulay update with  7 previous iterations:
 mixing of old trial potential: alpha(m:m-4)=   1.45     -0.179     -0.370       1.13     -0.996
{SCF_istep: 12 , Vnl|psi>: 319 , wall_time: ' 04:24 [minutes] '} <<< TIME

 ITER STEP NUMBER    13
 newocc: new Fermi energy is       0.080215 , with nelect=    100.000000, Number of bisection calls: 8
 mkrho: echo density (plane-wave part only)
 Total charge density [el/Bohr^3]
      Maximum=    3.0729E+00  at reduced coord.    0.0625    0.5208    0.5222
      Minimum=    1.0366E-03  at reduced coord.    0.0000    0.5000    0.0000
   Integrated=    1.0000E+02
 Spin up density      [el/Bohr^3]
      Maximum=    1.5919E+00  at reduced coord.    0.9438    0.5347    0.4778
      Minimum=    5.0691E-04  at reduced coord.    0.0000    0.5000    0.0000
   Integrated=    5.2000E+01
 Spin down density    [el/Bohr^3]
      Maximum=    1.5443E+00  at reduced coord.    0.9375    0.4792    0.4778
      Minimum=    5.2965E-04  at reduced coord.    0.0000    0.5000    0.0000
   Integrated=    4.8000E+01
 Magnetization (spin up - spin down) [el/Bohr^3]
      Maximum=    6.4834E-01  at reduced coord.    0.0688    0.0417    0.0278
      Minimum=   -2.3243E-02  at reduced coord.    0.0188    0.0208    0.9722
   Integrated=    4.0000E+00
 Relative magnetization (=zeta, between -1 and 1)
      Maximum=    5.3136E-01  at reduced coord.    0.9250    0.0972    0.8889
      Minimum=   -2.5340E-02  at reduced coord.    0.9688    0.1389    0.5333
 mkrho: echo density (plane-wave part only)
 Total kinetic energy density [Ha/Bohr^3]
      Maximum=    1.9581E+01  at reduced coord.    0.0125    0.4861    0.5056
      Minimum=    6.8839E-04  at reduced coord.    0.0000    0.5000    0.0000
   Integrated=    2.3460E+02
 Spin up density      [Ha/Bohr^3]
      Maximum=    1.0208E+01  at reduced coord.    0.9875    0.4861    0.4778
      Minimum=    3.3729E-04  at reduced coord.    0.0000    0.5000    0.0000
   Integrated=    1.2718E+02
 Spin down density    [Ha/Bohr^3]
      Maximum=    9.7931E+00  at reduced coord.    0.0000    0.5000    0.5000
      Minimum=    3.5110E-04  at reduced coord.    0.0000    0.5000    0.0000
   Integrated=    1.0742E+02
 Magnetization (spin up - spin down) [Ha/Bohr^3]
      Maximum=    2.9316E+00  at reduced coord.    0.0250    0.0208    0.9722
      Minimum=   -2.2611E-01  at reduced coord.    0.0000    0.5000    0.5000
   Integrated=    1.9764E+01
 Relative magnetization (=zeta, between -1 and 1)
      Maximum=    3.2010E-01  at reduced coord.    0.9000    0.3750    0.3500
      Minimum=   -2.3479E-02  at reduced coord.    0.0125    0.8681    0.4556
 Total charge density [el/Bohr^3]
      Maximum=    3.0729E+00  at reduced coord.    0.0625    0.5208    0.5222
      Minimum=    1.0366E-03  at reduced coord.    0.0000    0.5000    0.0000
   Integrated=    1.0000E+02
 Spin up density      [el/Bohr^3]
      Maximum=    1.5919E+00  at reduced coord.    0.9438    0.5347    0.4778
      Minimum=    5.0691E-04  at reduced coord.    0.0000    0.5000    0.0000
[...]
                       2.1929518744E-02 -9.5485435796E-03 -1.6437931822E-02
                      -2.1936855970E-02 -9.5799266866E-03 -1.6438074370E-02
                      -2.1929781826E-02  9.5550196542E-03  1.6437486633E-02
                       2.4264553657E-02 -5.0879406762E-02  2.3471223273E-02
                       2.4259030117E-02  5.0875841679E-02 -2.3474138755E-02
                      -2.4266381100E-02  5.0884184993E-02 -2.3472689469E-02
                      -2.4259641873E-02 -5.0879082474E-02  2.3474755282E-02
                      -3.4113923326E-02 -5.5688302505E-02 -1.6205100398E-02
                      -3.4114795138E-02  5.5676863975E-02  1.6194590448E-02
                       3.4119966651E-02  5.5690321927E-02  1.6207692858E-02
                       3.4117291741E-02 -5.5676693660E-02 -1.6195866620E-02
-          fftalg         312
              ixc     -263267
              kpt      2.50000000E-01  2.50000000E-01  2.50000000E-01
                      -2.50000000E-01  2.50000000E-01  2.50000000E-01
                       2.50000000E-01 -2.50000000E-01  2.50000000E-01
                      -2.50000000E-01 -2.50000000E-01  2.50000000E-01
         kptrlatt        2    0    0      0    2    0      0    0    2
          kptrlen      1.99942150E+01
P           mkmem           1
            natom          14
            nband          65
            ngfft         160     144     180
             nkpt           4
-        np_spkpt           8
           nspden           2
           nsppol           2
            nstep          60
             nsym           1
           ntypat           3
              occ      1.000000  1.000000  1.000000  1.000000  1.000000  1.000000
                       1.000000  1.000000  1.000000  1.000000  1.000000  1.000000
                       1.000000  1.000000  1.000000  1.000000  1.000000  1.000000
                       1.000000  1.000000  1.000000  1.000000  1.000000  1.000000
                       1.000000  1.000000  1.000000  1.000000  1.000000  1.000000
                       1.000000  1.000000  1.000000  1.000000  1.000000  1.000000
                       1.000000  1.000000  1.000000  1.000000  1.000000  1.000000
                       1.000000  1.000000  1.000000  1.000000  1.000000  1.000000
                       1.000000  1.000000  1.000000  1.000000  0.000000  0.000000
                       0.000000  0.000000  0.000000  0.000000  0.000000  0.000000
                       0.000000  0.000000  0.000000  0.000000  0.000000
                       1.000000  1.000000  1.000000  1.000000  1.000000  1.000000
                       1.000000  1.000000  1.000000  1.000000  1.000000  1.000000
                       1.000000  1.000000  1.000000  1.000000  1.000000  1.000000
                       1.000000  1.000000  1.000000  1.000000  1.000000  1.000000
                       1.000000  1.000000  1.000000  1.000000  1.000000  1.000000
                       1.000000  1.000000  1.000000  1.000000  1.000000  1.000000
                       1.000000  1.000000  1.000000  1.000000  1.000000  1.000000
                       1.000000  1.000000  1.000000  1.000000  1.000000  1.000000
                       1.000000  1.000000  1.000000  1.000000  0.000000  0.000000
                       0.000000  0.000000  0.000000  0.000000  0.000000  0.000000
                       0.000000  0.000000  0.000000  0.000000  0.000000
                       1.000000  1.000000  1.000000  1.000000  1.000000  1.000000
                       1.000000  1.000000  1.000000  1.000000  1.000000  1.000000
                       1.000000  1.000000  1.000000  1.000000  1.000000  1.000000
                       1.000000  1.000000  1.000000  1.000000  1.000000  1.000000
                       1.000000  1.000000  1.000000  1.000000  1.000000  1.000000
                       1.000000  1.000000  1.000000  1.000000  1.000000  1.000000
                       1.000000  1.000000  1.000000  1.000000  1.000000  1.000000
                       1.000000  1.000000  1.000000  1.000000  1.000000  1.000000
                       1.000000  1.000000  1.000000  1.000000  0.000000  0.000000
                       0.000000  0.000000  0.000000  0.000000  0.000000  0.000000
                       0.000000  0.000000  0.000000  0.000000  0.000000
                       1.000000  1.000000  1.000000  1.000000  1.000000  1.000000
                       1.000000  1.000000  1.000000  1.000000  1.000000  1.000000
                       1.000000  1.000000  1.000000  1.000000  1.000000  1.000000
                       1.000000  1.000000  1.000000  1.000000  1.000000  1.000000
                       1.000000  1.000000  1.000000  1.000000  1.000000  1.000000
                       1.000000  1.000000  1.000000  1.000000  1.000000  1.000000
                       1.000000  1.000000  1.000000  1.000000  1.000000  1.000000
                       1.000000  1.000000  1.000000  1.000000  1.000000  1.000000
                       1.000000  1.000000  1.000000  1.000000  0.000000  0.000000
                       0.000000  0.000000  0.000000  0.000000  0.000000  0.000000
                       0.000000  0.000000  0.000000  0.000000  0.000000
                       1.000000  1.000000  1.000000  1.000000  1.000000  1.000000
                       1.000000  1.000000  1.000000  1.000000  1.000000  1.000000
                       1.000000  1.000000  1.000000  1.000000  1.000000  1.000000
                       1.000000  1.000000  1.000000  1.000000  1.000000  1.000000
                       1.000000  1.000000  1.000000  1.000000  1.000000  1.000000
                       1.000000  1.000000  1.000000  1.000000  1.000000  1.000000
                       1.000000  1.000000  1.000000  1.000000  1.000000  1.000000
                       1.000000  1.000000  1.000000  1.000000  1.000000  1.000000
                       0.000000  0.000000  0.000000  0.000000  0.000000  0.000000
                       0.000000  0.000000  0.000000  0.000000  0.000000  0.000000
                       0.000000  0.000000  0.000000  0.000000  0.000000
                       1.000000  1.000000  1.000000  1.000000  1.000000  1.000000
                       1.000000  1.000000  1.000000  1.000000  1.000000  1.000000
                       1.000000  1.000000  1.000000  1.000000  1.000000  1.000000
                       1.000000  1.000000  1.000000  1.000000  1.000000  1.000000
                       1.000000  1.000000  1.000000  1.000000  1.000000  1.000000
                       1.000000  1.000000  1.000000  1.000000  1.000000  1.000000
                       1.000000  1.000000  1.000000  1.000000  1.000000  1.000000
                       1.000000  1.000000  1.000000  1.000000  1.000000  1.000000
                       0.000000  0.000000  0.000000  0.000000  0.000000  0.000000
                       0.000000  0.000000  0.000000  0.000000  0.000000  0.000000
                       0.000000  0.000000  0.000000  0.000000  0.000000
                       1.000000  1.000000  1.000000  1.000000  1.000000  1.000000
                       1.000000  1.000000  1.000000  1.000000  1.000000  1.000000
                       1.000000  1.000000  1.000000  1.000000  1.000000  1.000000
                       1.000000  1.000000  1.000000  1.000000  1.000000  1.000000
                       1.000000  1.000000  1.000000  1.000000  1.000000  1.000000
                       1.000000  1.000000  1.000000  1.000000  1.000000  1.000000
                       1.000000  1.000000  1.000000  1.000000  1.000000  1.000000
                       1.000000  1.000000  1.000000  1.000000  1.000000  1.000000
                       0.000000  0.000000  0.000000  0.000000  0.000000  0.000000
                       0.000000  0.000000  0.000000  0.000000  0.000000  0.000000
                       0.000000  0.000000  0.000000  0.000000  0.000000
                       1.000000  1.000000  1.000000  1.000000  1.000000  1.000000
                       1.000000  1.000000  1.000000  1.000000  1.000000  1.000000
                       1.000000  1.000000  1.000000  1.000000  1.000000  1.000000
                       1.000000  1.000000  1.000000  1.000000  1.000000  1.000000
                       1.000000  1.000000  1.000000  1.000000  1.000000  1.000000
                       1.000000  1.000000  1.000000  1.000000  1.000000  1.000000
                       1.000000  1.000000  1.000000  1.000000  1.000000  1.000000
                       1.000000  1.000000  1.000000  1.000000  1.000000  1.000000
                       0.000000  0.000000  0.000000  0.000000  0.000000  0.000000
                       0.000000  0.000000  0.000000  0.000000  0.000000  0.000000
                       0.000000  0.000000  0.000000  0.000000  0.000000
           occopt           3
           prtden           0
           prteig           0
          prtkden           1
            prtwf           0
            rprim      0.0000000000E+00  1.0137047334E+01  0.0000000000E+00
                       9.6126033568E+00  0.0000000000E+00  0.0000000000E+00
                       0.0000000000E+00 -5.7455806104E+00 -9.8776109362E+00
           shiftk      5.00000000E-01  5.00000000E-01  5.00000000E-01
          spgroup           1
           spinat      0.0000000000E+00  0.0000000000E+00  1.0000000000E+00
                       0.0000000000E+00  0.0000000000E+00  1.0000000000E+00
                       0.0000000000E+00  0.0000000000E+00  1.0000000000E+00
                       0.0000000000E+00  0.0000000000E+00  1.0000000000E+00
                       0.0000000000E+00  0.0000000000E+00  1.0000000000E+00
                       0.0000000000E+00  0.0000000000E+00  1.0000000000E+00
                       0.0000000000E+00  0.0000000000E+00  1.0000000000E+00
                       0.0000000000E+00  0.0000000000E+00  1.0000000000E+00
                       0.0000000000E+00  0.0000000000E+00  1.0000000000E+00
                       0.0000000000E+00  0.0000000000E+00  1.0000000000E+00
                       0.0000000000E+00  0.0000000000E+00  1.0000000000E+00
                       0.0000000000E+00  0.0000000000E+00  1.0000000000E+00
                       0.0000000000E+00  0.0000000000E+00  1.0000000000E+00
                       0.0000000000E+00  0.0000000000E+00  1.0000000000E+00
           strten      1.2016735735E-02  1.2597032915E-02  1.1892300540E-02
                      -7.9253677099E-05  2.8704476622E-08  2.0339236421E-08
           toldfe      1.00000000E-06 Hartree
           tsmear      1.00000000E-03 Hartree
            typat      1  1  2  2  2  2  3  3  3  3  3  3  3  3
          usekden           1
              wtk        0.25000    0.25000    0.25000    0.25000
           xangst      2.6451207180E+00 -1.5810237608E+00 -2.7180434230E+00
                       0.0000000000E+00  0.0000000000E+00  0.0000000000E+00
                       3.2825260379E+00  1.2386594092E+00 -2.2333021229E+00
                       6.3740531991E-01  2.7591830180E+00 -4.8474130015E-01
                       2.0077153981E+00  1.1781592572E+00 -3.2027847232E+00
                       4.6528361162E+00 -3.4236435151E-01 -4.9513455459E+00
                       1.5476812931E+00  2.3239541085E+00 -3.6887002181E+00
                       4.1928020111E+00 -1.4881592028E+00 -4.4654300510E+00
                       3.7425601430E+00  9.2864557946E-02 -1.7473866280E+00
                       1.0974394249E+00  3.9049778693E+00 -9.7065679506E-01
                       3.7860988300E+00  2.4258338222E+00 -1.9911244539E+00
                       1.1409781120E+00  1.5720086051E+00 -7.2691896915E-01
                       1.5041426061E+00 -9.0151556738E-03 -3.4449623922E+00
                       4.1492633241E+00  8.4481006140E-01 -4.7091678769E+00
            xcart      4.9985537455E+00 -2.9877019174E+00 -5.1363576868E+00
                       0.0000000000E+00  0.0000000000E+00  0.0000000000E+00
                       6.2030752358E+00  2.3407270554E+00 -4.2203293843E+00
                       1.2045214903E+00  5.2141002545E+00 -9.1602830259E-01
                       3.7940322552E+00  2.2263983371E+00 -6.0523859894E+00
                       8.7925860008E+00 -6.4697486202E-01 -9.3566870711E+00
                       2.9246937849E+00  4.3916368105E+00 -6.9706331985E+00
                       7.9232475304E+00 -2.8122133354E+00 -8.4384398620E+00
                       7.0724137061E+00  1.7548858197E-01 -3.3020821751E+00
                       2.0738599606E+00  7.3793387279E+00 -1.8342755117E+00
                       7.1546899007E+00  4.5841615678E+00 -3.7626799144E+00
                       2.1561361552E+00  2.9706657421E+00 -1.3736777725E+00
                       2.8424175903E+00 -1.7036175269E-02 -6.5100354593E+00
                       7.8409713358E+00  1.5964596503E+00 -8.8990376012E+00
             xred     -2.5179664158E-18  5.0000000000E-01  5.0000000000E-01
                       0.0000000000E+00  0.0000000000E+00  0.0000000000E+00
                       4.5488100000E-01  6.2048700000E-01  4.1082900000E-01
                       5.4511900000E-01  1.2048700000E-01  8.9171000000E-02
                       5.4511900000E-01  3.7951300000E-01  5.8917100000E-01
                       4.5488100000E-01  8.7951300000E-01  9.1082900000E-01
                       8.0116400000E-01  2.9255400000E-01  6.7855800000E-01
                       1.9883600000E-01  7.9255400000E-01  8.2144200000E-01
                       1.9883600000E-01  7.0744600000E-01  3.2144200000E-01
                       8.0116400000E-01  2.0744600000E-01  1.7855800000E-01
                       6.4242900000E-01  7.1567600000E-01  3.6627900000E-01
                       3.5757100000E-01  2.1567600000E-01  1.3372100000E-01
                       3.5757100000E-01  2.8432400000E-01  6.3372100000E-01
                       6.4242900000E-01  7.8432400000E-01  8.6627900000E-01
            znucl       28.00000    6.00000    8.00000

================================================================================
  

================================================================================

 Suggested references for the acknowledgment of ABINIT usage.

 The users of ABINIT have little formal obligations with respect to the ABINIT group
 (those specified in the GNU General Public License, http://www.gnu.org/copyleft/gpl.txt).
 However, it is common practice in the scientific literature,
 to acknowledge the efforts of people that have made the research possible.
 In this spirit, please find below suggested citations of work written by ABINIT developers,
 corresponding to implementations inside of ABINIT that you have used in the present run.
 Note also that it will be of great value to readers of publications presenting these results,
 to read papers enabling them to understand the theoretical formalism and details
 of the ABINIT implementation.
 For information on why they are suggested, see also https://docs.abinit.org/theory/acknowledgments.
-
- [1] Libxc: A library of exchange and correlation functionals for density functional theory.
- M.A.L. Marques, M.J.T. Oliveira, T. Burnus, Computer Physics Communications 183, 2227 (2012).
- Comment: to be cited when LibXC is used (negative value of ixc)
- Strong suggestion to cite this paper.
- DOI and bibtex: see https://docs.abinit.org/theory/bibliography/#marques2012
-
- [2] The Abinit project: Impact, environment and recent developments.
- Computer Phys. Comm. 248, 107042 (2020).
- X.Gonze, B. Amadon, G. Antonius, F.Arnardi, L.Baguet, J.-M.Beuken,
- J.Bieder, F.Bottin, J.Bouchet, E.Bousquet, N.Brouwer, F.Bruneval,
- G.Brunin, T.Cavignac, J.-B. Charraud, Wei Chen, M.Cote, S.Cottenier,
- J.Denier, G.Geneste, Ph.Ghosez, M.Giantomassi, Y.Gillet, O.Gingras,
- D.R.Hamann, G.Hautier, Xu He, N.Helbig, N.Holzwarth, Y.Jia, F.Jollet,
- W.Lafargue-Dit-Hauret, K.Lejaeghere, M.A.L.Marques, A.Martin, C.Martins,
- H.P.C. Miranda, F.Naccarato, K. Persson, G.Petretto, V.Planes, Y.Pouillon,
- S.Prokhorenko, F.Ricci, G.-M.Rignanese, A.H.Romero, M.M.Schmitt, M.Torrent,
- M.J.van Setten, B.Van Troeye, M.J.Verstraete, G.Zerah and J.W.Zwanzig
- Comment: the fifth generic paper describing the ABINIT project.
- Note that a version of this paper, that is not formatted for Computer Phys. Comm. 
- is available at https://www.abinit.org/sites/default/files/ABINIT20.pdf .
- The licence allows the authors to put it on the Web.
- DOI and bibtex: see https://docs.abinit.org/theory/bibliography/#gonze2020
-
- [3] Optimized norm-conserving Vanderbilt pseudopotentials.
- D.R. Hamann, Phys. Rev. B 88, 085117 (2013).
- Comment: Some pseudopotential generated using the ONCVPSP code were used.
- DOI and bibtex: see https://docs.abinit.org/theory/bibliography/#hamann2013
-
- [4] ABINIT: Overview, and focus on selected capabilities
- J. Chem. Phys. 152, 124102 (2020).
- A. Romero, D.C. Allan, B. Amadon, G. Antonius, T. Applencourt, L.Baguet,
- J.Bieder, F.Bottin, J.Bouchet, E.Bousquet, F.Bruneval,
- G.Brunin, D.Caliste, M.Cote,
- J.Denier, C. Dreyer, Ph.Ghosez, M.Giantomassi, Y.Gillet, O.Gingras,
- D.R.Hamann, G.Hautier, F.Jollet, G. Jomard,
- A.Martin, 
- H.P.C. Miranda, F.Naccarato, G.Petretto, N.A. Pike, V.Planes,
- S.Prokhorenko, T. Rangel, F.Ricci, G.-M.Rignanese, M.Royo, M.Stengel, M.Torrent,
- M.J.van Setten, B.Van Troeye, M.J.Verstraete, J.Wiktor, J.W.Zwanziger, and X.Gonze.
- Comment: a global overview of ABINIT, with focus on selected capabilities .
- Note that a version of this paper, that is not formatted for J. Chem. Phys 
- is available at https://www.abinit.org/sites/default/files/ABINIT20_JPC.pdf .
- The licence allows the authors to put it on the Web.
- DOI and bibtex: see https://docs.abinit.org/theory/bibliography/#romero2020
-
- [5] Recent developments in the ABINIT software package.
- Computer Phys. Comm. 205, 106 (2016).
- X.Gonze, F.Jollet, F.Abreu Araujo, D.Adams, B.Amadon, T.Applencourt,
- C.Audouze, J.-M.Beuken, J.Bieder, A.Bokhanchuk, E.Bousquet, F.Bruneval
- D.Caliste, M.Cote, F.Dahm, F.Da Pieve, M.Delaveau, M.Di Gennaro,
- B.Dorado, C.Espejo, G.Geneste, L.Genovese, A.Gerossier, M.Giantomassi,
- Y.Gillet, D.R.Hamann, L.He, G.Jomard, J.Laflamme Janssen, S.Le Roux,
- A.Levitt, A.Lherbier, F.Liu, I.Lukacevic, A.Martin, C.Martins,
- M.J.T.Oliveira, S.Ponce, Y.Pouillon, T.Rangel, G.-M.Rignanese,
- A.H.Romero, B.Rousseau, O.Rubel, A.A.Shukri, M.Stankovski, M.Torrent,
- M.J.Van Setten, B.Van Troeye, M.J.Verstraete, D.Waroquier, J.Wiktor,
- B.Xu, A.Zhou, J.W.Zwanziger.
- Comment: the fourth generic paper describing the ABINIT project.
- Note that a version of this paper, that is not formatted for Computer Phys. Comm. 
- is available at https://www.abinit.org/sites/default/files/ABINIT16.pdf .
- The licence allows the authors to put it on the Web.
- DOI and bibtex: see https://docs.abinit.org/theory/bibliography/#gonze2016
 Proc.   0 individual time (sec): cpu=       7552.5  wall=       7614.4

 Calculation completed.
.Delivered   0 WARNINGs and   0 COMMENTs to log file.

--- !FinalSummary
program: abinit
version: 9.6.2
start_datetime: Wed Dec 14 23:02:40 2022
end_datetime: Thu Dec 15 01:09:34 2022
overall_cpu_time:       60692.5
overall_wall_time:       60915.0
exit_requested_by_user: no 
timelimit: 0
pseudos: 
    Ni  : 6ed2f4ef33f542dbb8bccaf193f9ee1b
    C   : 0671db42fbc6781d44a36978545fd691
    O   : ec29db0878725605673bf3262559bcee
usepaw: 0
mpi_procs: 10
omp_threads: 1
num_warnings: 0
num_comments: 0
...
---------------------------------------
Begin Slurm Epilog: Dec-15-2022 01:09:35
Job ID:        184343
Array Job ID:  _4294967294
User ID:       bzhang376
Account:       gts-phanish6-coda20
Job name:      Abi104
Resources:     cpu=10,mem=70G,node=1
Rsrc Used:     cput=21:09:30,vmem=8516K,walltime=02:06:57,mem=7388K,energy_used=0
Partition:     cpu-small
QOS:           inferno
Nodes:         atl1-1-02-005-20-2
---------------------------------------
