:MDSTEP: 20
:R(Bohr):
  5.3412362791E+01   1.4869697514E-02   4.6419295104E+01
  3.9989570294E+00   5.3075683181E+01   5.0247076764E+01
  5.3479385077E+01   3.1886747460E+00   4.9680093240E+01
  5.3135832968E+01   3.9524949437E-01   3.8230357702E+01
  3.6633598388E+00   5.3480952043E+01   4.1598975627E+01
  7.1082603319E+00   3.5667157553E-01   4.5643126527E+01
  1.0688681659E+01   5.3346360451E+01   4.9982759836E+01
  5.3451662844E+01   4.0171303016E+00   4.2670615393E+01
  3.7697977253E+00   3.5080929640E+00   4.6124580600E+01
  7.3206810006E+00   3.7645306623E+00   4.9155114321E+01
  5.3487293678E+01   7.4305010831E+00   4.6115315286E+01
  3.9655248729E+00   7.6415830495E+00   5.0272475662E+01
  5.3512671731E+01   1.1716201486E+01   4.9534562429E+01
  6.5304316085E-01   5.3435748137E+01   3.0229557727E+01
  3.0217577873E+00   3.5299317001E-01   3.4089776955E+01
  7.7796014144E+00   5.2961641593E+01   3.8401474389E+01
  1.1190386607E+01   5.3423729792E+01   4.2401052589E+01
  1.5088882679E+01   3.0496157849E-01   4.5731098750E+01
  1.8948951659E+01   5.3378468707E+01   4.9683291001E+01
  5.3515356209E+01   3.9472978785E+00   3.4113727053E+01
  3.9836768861E+00   3.5795505034E+00   3.8111337796E+01
  8.2767516752E+00   3.6409772856E+00   4.2221993773E+01
  1.1395411619E+01   3.7157822812E+00   4.5936586085E+01
  1.5387826002E+01   4.3319271984E+00   4.9663066814E+01
  1.2592094873E-01   8.2725191886E+00   3.8284891746E+01
  4.1394272208E+00   7.4025985381E+00   4.1447961565E+01
  7.1198428823E+00   7.8958200966E+00   4.5725719252E+01
  1.1178325009E+01   7.6425787527E+00   4.9825604071E+01
  5.3065290543E+01   1.1346588726E+01   4.2545820112E+01
  4.1216056933E+00   1.1841273234E+01   4.6021545402E+01
  7.4416437236E+00   1.1938713329E+01   4.9718891398E+01
  5.3255801502E+01   1.5336659768E+01   4.5479405405E+01
  4.1623644457E+00   1.5507024471E+01   4.9325739621E+01
  5.3261835677E+01   1.9206002774E+01   4.9392701374E+01
  5.3385974505E+01   4.1462716661E-01   2.2731912789E+01
  3.7969223615E+00   5.3266748020E+01   2.6441315877E+01
  7.8447720349E+00   5.3340879991E+01   3.0696005372E+01
  1.1959456495E+01   5.3543744339E+01   3.4084059589E+01
  1.4626796536E+01   9.5921312425E-02   3.7843105324E+01
  1.9113204845E+01   5.3326483463E+01   4.2169119989E+01
  2.3334056644E+01   1.9047591185E-01   4.6331987185E+01
  2.7033656813E+01   2.6177314220E-01   4.9926587927E+01
  5.3423551709E+01   3.3084057561E+00   2.6719857114E+01
  4.2456649127E+00   4.2662230585E+00   3.0412073864E+01
  7.5003448789E+00   3.9502438090E+00   3.4514787306E+01
  1.1256292295E+01   4.1027596571E+00   3.8430399647E+01
  1.5660601699E+01   3.4499611040E+00   4.1770294328E+01
  1.9045174314E+01   3.5943056055E+00   4.6351755302E+01
  2.3235023703E+01   3.5777361202E+00   4.9624387884E+01
  5.3268225576E+01   7.4603778725E+00   3.0312378774E+01
  3.5343312031E+00   7.3963005079E+00   3.4528151813E+01
  7.7600641588E+00   7.3688578097E+00   3.8374344660E+01
  1.1560713766E+01   7.7893846342E+00   4.1675368845E+01
  1.4963708808E+01   7.8677622377E+00   4.5810002330E+01
  1.9092373716E+01   7.5557081666E+00   5.0146826477E+01
  5.3299232068E+01   1.1059310985E+01   3.4123807173E+01
  4.0487971217E+00   1.1624823074E+01   3.8068706707E+01
  7.0512335162E+00   1.1549043796E+01   4.2054623552E+01
  1.1482278412E+01   1.0953368459E+01   4.6124018858E+01
  1.5855289164E+01   1.1658806240E+01   4.9335011442E+01
  5.3123961916E+01   1.5894062877E+01   3.8315706849E+01
  3.7153146246E+00   1.5556146823E+01   4.2421887998E+01
  7.7676677802E+00   1.5705671002E+01   4.5389881185E+01
  1.1489114223E+01   1.4806601368E+01   4.9132726377E+01
  5.3371509572E+01   1.9164864730E+01   4.2251659622E+01
  4.1431373526E+00   1.9145338210E+01   4.5642812627E+01
  7.9098111975E+00   1.8768087339E+01   4.9601193958E+01
  2.5340990124E-01   2.3008876436E+01   4.6124635455E+01
  4.2130066185E+00   2.2836699965E+01   4.9705320369E+01
  5.3365654461E+01   2.7215197817E+01   4.9617842111E+01
  5.3475223808E+01   1.1006428494E-01   1.5082875002E+01
  3.4210493973E+00   5.3516892045E+01   1.8910685512E+01
  7.5633300598E+00   5.3156461363E+01   2.2438945373E+01
  1.1444229198E+01   3.3985134495E-01   2.6971868024E+01
  1.5615309140E+01   5.3335363452E+01   3.0590247600E+01
  1.8615013001E+01   5.3279866967E+01   3.4638022492E+01
  2.3130311069E+01   5.3395051194E+01   3.8644281476E+01
  2.6748850049E+01   5.3284362839E+01   4.2333231306E+01
  3.1056312111E+01   5.3337344283E+01   4.5760088450E+01
  3.4395343519E+01   5.3083163317E+01   4.9504905293E+01
  3.1655630641E-01   3.8972352764E+00   1.8591589924E+01
  3.7417542521E+00   3.6607906435E+00   2.3514090197E+01
  8.1867205876E+00   3.8641330619E+00   2.6978773882E+01
  1.1492714670E+01   3.7495565154E+00   3.0843254590E+01
  1.5096217818E+01   4.0404800004E+00   3.4230031006E+01
  1.8875835035E+01   3.4582883182E+00   3.7881838149E+01
  2.2981667155E+01   3.6808297682E+00   4.1949348996E+01
  2.7326530662E+01   3.3828165263E+00   4.5598851230E+01
  3.0816703901E+01   3.8707698155E+00   4.9559221569E+01
  7.3100667013E-02   8.0741632628E+00   2.2408220379E+01
  3.5273605944E+00   8.1484777246E+00   2.6324176859E+01
  7.9631379379E+00   7.4169863923E+00   3.0577920841E+01
  1.1382702000E+01   7.5791650130E+00   3.4233983064E+01
  1.5550581542E+01   7.0806828005E+00   3.8313331079E+01
  1.9191576373E+01   6.9238053099E+00   4.2532917067E+01
  2.2767528486E+01   7.2562819194E+00   4.5801821782E+01
  2.6997666703E+01   7.4547604236E+00   5.0006116918E+01
  3.7367249048E-02   1.1318739079E+01   2.7010778792E+01
  3.7607907535E+00   1.1384743078E+01   3.0907277462E+01
  7.5189977621E+00   1.1223232904E+01   3.4280080149E+01
  1.1433716441E+01   1.1343959602E+01   3.8742931539E+01
  1.5559405947E+01   1.1167106968E+01   4.2416969292E+01
  1.9732533271E+01   1.1486295142E+01   4.5677972137E+01
  2.2432213127E+01   1.1226535504E+01   5.0132280288E+01
  1.8871001977E-01   1.5673554559E+01   3.0015418982E+01
  3.8909230130E+00   1.5576732004E+01   3.3865597526E+01
  7.2486304594E+00   1.5676566239E+01   3.8222126634E+01
  1.2027686275E+01   1.5413369039E+01   4.2715037935E+01
  1.5519628453E+01   1.5397434052E+01   4.5917731272E+01
  1.9587968285E+01   1.5303575083E+01   4.9426473247E+01
  5.3145715542E+01   1.9411402875E+01   3.4489576597E+01
  3.2630332949E+00   1.9238666456E+01   3.7928046695E+01
  7.9843828618E+00   1.9637688322E+01   4.1971390288E+01
  1.1820851211E+01   1.8893514349E+01   4.6458460966E+01
  1.4806297395E+01   1.9543860189E+01   5.0195888607E+01
  1.6773394141E-01   2.3459583153E+01   3.8041083029E+01
  3.9705618196E+00   2.2663117356E+01   4.2205756444E+01
  8.0725971201E+00   2.2969273889E+01   4.6169512168E+01
  1.1410662166E+01   2.3084770506E+01   4.9806265741E+01
  5.3504834963E+01   2.6530167229E+01   4.2069013744E+01
  3.2166755826E+00   2.6910082856E+01   4.5903737919E+01
  7.0767654852E+00   2.6896529318E+01   5.0028468412E+01
  5.3101622072E+01   3.0868228116E+01   4.6227320085E+01
  3.8766416053E+00   3.0702367191E+01   4.9955029138E+01
  5.3517329515E+01   3.4687245828E+01   4.9971450160E+01
  1.0047842526E-01   9.1389472977E-02   7.3958312541E+00
  3.7702297347E+00   5.3469785133E+01   1.1240641350E+01
  7.8510176946E+00   4.3156614916E-01   1.5378265082E+01
  1.1298294977E+01   5.3224334821E+01   1.9086233509E+01
  1.5360808882E+01   5.3466787452E+01   2.2968496812E+01
  1.9469147783E+01   1.0766656144E-01   2.6711695395E+01
  2.3564589178E+01   5.3385100309E+01   3.0969785732E+01
  2.6860043484E+01   5.2975324654E+01   3.4570368627E+01
  3.0169354968E+01   5.3328579367E+01   3.8283066561E+01
  3.4761945177E+01   5.3478115649E+01   4.1950084763E+01
  3.8198904705E+01   4.7753136153E-01   4.6069049694E+01
  4.2492028611E+01   5.3158243623E+01   5.0345410988E+01
  3.9223703573E-02   3.8614114626E+00   1.1360382817E+01
  4.0731232784E+00   3.4703717152E+00   1.5251919024E+01
  7.4469191292E+00   3.8838390798E+00   1.9161688508E+01
  1.1722098696E+01   4.2886444605E+00   2.2892709337E+01
  1.5176872641E+01   3.6763427521E+00   2.6920428683E+01
  1.8720790161E+01   3.7312188758E+00   3.0787828204E+01
  2.2803540778E+01   3.4469264155E+00   3.4721691565E+01
  2.6354924590E+01   3.7571807255E+00   3.8463759411E+01
  3.0571021207E+01   3.4517290393E+00   4.1886825507E+01
  3.4471370866E+01   3.8433199126E+00   4.5903324911E+01
  3.8432685357E+01   4.2346126209E+00   4.9372148358E+01
  5.3445479164E+01   7.6659772658E+00   1.5186876211E+01
  3.5475958709E+00   7.9797351059E+00   1.9305700401E+01
  7.2645501486E+00   7.8174507436E+00   2.2939827603E+01
  1.1987528302E+01   7.5680566616E+00   2.7119083559E+01
  1.5608474617E+01   7.3409372612E+00   3.0549850541E+01
  1.8825132509E+01   7.7787829338E+00   3.4313819954E+01
  2.2703461283E+01   7.5809364531E+00   3.8156847481E+01
  2.7048197902E+01   7.2128943193E+00   4.1644198749E+01
  3.0181994681E+01   7.3195658654E+00   4.5718619885E+01
  3.4521622440E+01   7.1648585637E+00   4.9736388027E+01
  8.4567729789E-02   1.1609406614E+01   1.8659210808E+01
  4.0748959520E+00   1.1721294888E+01   2.2537166423E+01
  7.3997576359E+00   1.1338934453E+01   2.6340060609E+01
  1.1704992502E+01   1.1730470110E+01   3.0740322571E+01
  1.5170521948E+01   1.1084370362E+01   3.4976276676E+01
  1.9609402634E+01   1.1390695281E+01   3.8179448093E+01
  2.2834321445E+01   1.1013784585E+01   4.1624542884E+01
  2.5986257334E+01   1.1188762578E+01   4.5854368532E+01
  3.0165279840E+01   1.1410926786E+01   4.9526380334E+01
  5.3512231737E+01   1.5663274690E+01   2.2315060669E+01
  4.0963685091E+00   1.4854111445E+01   2.6726917431E+01
  7.6590416754E+00   1.5634719555E+01   3.0770053742E+01
  1.1245834947E+01   1.5195231463E+01   3.4309298779E+01
  1.5719039525E+01   1.4649848181E+01   3.8001726214E+01
  1.9213107639E+01   1.5333002225E+01   4.2123153402E+01
  2.3085964451E+01   1.5569563924E+01   4.5817356531E+01
  2.6670942977E+01   1.5501985313E+01   4.9884485569E+01
  3.8253104139E-01   1.9127276122E+01   2.6759594069E+01
  3.8463055253E+00   1.8849522204E+01   3.0549123798E+01
  7.2365978596E+00   1.9416116849E+01   3.4418763540E+01
  1.1133577355E+01   1.9132306362E+01   3.7981338486E+01
  1.4945233469E+01   1.9448299155E+01   4.1817979793E+01
  1.9037521593E+01   1.9482235998E+01   4.6174838143E+01
  2.2803142978E+01   1.9267697144E+01   4.9830477714E+01
  2.1012475439E-01   2.3341874111E+01   3.0290337990E+01
  3.2733176295E+00   2.3015419676E+01   3.4180749015E+01
  7.5163220988E+00   2.3101785155E+01   3.7797868525E+01
  1.1749416640E+01   2.2856951506E+01   4.1807863588E+01
  1.4959824803E+01   2.3159437896E+01   4.6035453609E+01
  1.8970302315E+01   2.3228746033E+01   5.0031141748E+01
  5.3382085214E+01   2.7002921415E+01   3.4551914501E+01
  3.8826038663E+00   2.7092476810E+01   3.8110962907E+01
  7.3527068513E+00   2.6546290546E+01   4.1838254073E+01
  1.0885706897E+01   2.7157521539E+01   4.6210252450E+01
  1.5366260902E+01   2.6555215763E+01   4.9368050414E+01
  2.8166085837E-01   3.0239676936E+01   3.8206679881E+01
  4.1064875696E+00   3.1078407659E+01   4.2471273354E+01
  7.7819652693E+00   3.0855128805E+01   4.5958930681E+01
  1.1098237087E+01   3.0495587755E+01   4.9693425854E+01
  5.3225248735E+01   3.4620610270E+01   4.1711447305E+01
  4.3112467855E+00   3.4588147016E+01   4.6058537527E+01
  7.9781910816E+00   3.4331359899E+01   4.9643191573E+01
  4.1594003338E-01   3.7820796863E+01   4.5517988648E+01
  3.8428556522E+00   3.8059512824E+01   5.0079866850E+01
  2.1836418697E-01   4.1626447150E+01   4.9534139191E+01
  2.2008778395E-01   3.0163748591E-01   1.1200760100E-01
  3.8035138162E+00   5.3358533402E+01   4.2031248477E+00
  7.3246906344E+00   7.1505232190E-02   8.0147358399E+00
  1.1317541920E+01   5.3260027402E+01   1.1378309224E+01
  1.5354138817E+01   5.3450262144E+01   1.5251076842E+01
  1.9626421659E+01   1.4347400427E-01   1.8680586559E+01
  2.3299462514E+01   1.1101110587E-01   2.2770694305E+01
  2.6776926285E+01   5.3122643504E+01   2.6934015714E+01
  3.0900395869E+01   5.3335269072E+01   3.0552930892E+01
  3.3920988576E+01   5.3452832083E+01   3.4561469557E+01
  3.7974554710E+01   5.3427899580E+01   3.7834239412E+01
  4.1780508330E+01   3.5261778243E-01   4.1595905121E+01
  4.5975081824E+01   4.0722400539E-01   4.5349098991E+01
  4.8997809525E+01   7.8609912276E-02   4.9874122985E+01
  2.4830113928E-01   3.8022099337E+00   4.1285678987E+00
  4.3348630784E+00   3.7968164895E+00   7.4741904685E+00
  7.3327602127E+00   4.2573627198E+00   1.1159619119E+01
  1.1494374973E+01   3.7211323629E+00   1.5614114294E+01
  1.5087306991E+01   3.4396961756E+00   1.8686136270E+01
  1.8546484812E+01   3.9471808619E+00   2.3123350643E+01
  2.3482929545E+01   3.7190001335E+00   2.7246258535E+01
  2.6809423534E+01   3.7940426751E+00   3.0336265855E+01
  3.0681313669E+01   3.5673256374E+00   3.4426353183E+01
  3.4492135576E+01   3.9248417597E+00   3.8243037084E+01
  3.8484996560E+01   4.2953305707E+00   4.2229293306E+01
  4.2281668229E+01   3.1342800186E+00   4.6536733378E+01
  4.5874604889E+01   3.9684389274E+00   4.9819346904E+01
  7.0116593933E-02   7.9450674668E+00   7.8033503806E+00
  3.5102047518E+00   7.8899230837E+00   1.1111603533E+01
  7.9760903988E+00   7.4203991076E+00   1.5394419521E+01
  1.1503624921E+01   7.9919225528E+00   1.9031807926E+01
  1.5534269763E+01   7.5998130177E+00   2.2667826117E+01
  1.8914801122E+01   7.7332370984E+00   2.6901254089E+01
  2.2673444808E+01   7.3933919973E+00   3.0557551981E+01
  2.6581366374E+01   7.4424451573E+00   3.4241513208E+01
  3.0717000000E+01   8.0090327681E+00   3.8056303172E+01
  3.4697355454E+01   8.0394343431E+00   4.1656577269E+01
  3.8079767680E+01   7.4219965989E+00   4.5591030506E+01
  4.2391537483E+01   7.4818722074E+00   4.9546142793E+01
  8.1913790267E-02   1.1698257085E+01   1.1457144589E+01
  3.7962719285E+00   1.1079628197E+01   1.5464131722E+01
  7.7380070974E+00   1.1339428537E+01   1.9387022482E+01
  1.1526034885E+01   1.1033083762E+01   2.2807250069E+01
  1.4952610249E+01   1.1412482688E+01   2.7110406951E+01
  1.9105129071E+01   1.1609530431E+01   3.0356611529E+01
  2.3093574400E+01   1.2108960475E+01   3.4555909532E+01
  2.7378878588E+01   1.1877186104E+01   3.8454998833E+01
  3.0436206980E+01   1.1314289657E+01   4.2404922969E+01
  3.4513607290E+01   1.1275401792E+01   4.6194407263E+01
  3.8369554968E+01   1.1350614117E+01   4.9168655870E+01
  3.3404353794E-01   1.5878177479E+01   1.5157915759E+01
  4.2428259329E+00   1.5274552065E+01   1.8878208475E+01
  8.0069821513E+00   1.5522470650E+01   2.2624239962E+01
  1.1717433396E+01   1.5017051088E+01   2.6932588091E+01
  1.5372851746E+01   1.5615742310E+01   3.0088028848E+01
  1.8829599583E+01   1.5509726868E+01   3.4396733375E+01
  2.3055755429E+01   1.4932151550E+01   3.8821307360E+01
  2.6795970490E+01   1.4926514528E+01   4.2923243262E+01
  3.0892337504E+01   1.5537082715E+01   4.5909189199E+01
  3.4777107282E+01   1.5595574337E+01   4.9673593408E+01
  9.1395567067E-02   1.9517069406E+01   1.8769293655E+01
  3.9956192889E+00   1.8719291187E+01   2.3383921455E+01
  7.3878733600E+00   1.9402195452E+01   2.6887682687E+01
  1.1846136950E+01   1.9211893969E+01   3.0635602178E+01
  1.5079482923E+01   1.9137944505E+01   3.4112910417E+01
  1.8918747825E+01   1.9073730363E+01   3.8753834356E+01
  2.3150177429E+01   1.8901780006E+01   4.2530181838E+01
  2.6544958605E+01   1.9013129616E+01   4.6001718625E+01
  3.0755511923E+01   1.9257871215E+01   4.9874445649E+01
  9.9467639975E-02   2.3414031456E+01   2.2785221001E+01
  3.8991932669E+00   2.3404272331E+01   2.6938317724E+01
  7.8746386888E+00   2.2920329407E+01   3.0398167556E+01
  1.1609345176E+01   2.2885662719E+01   3.4357631910E+01
  1.5300317937E+01   2.3307511292E+01   3.7664443833E+01
  1.9180224894E+01   2.3265761484E+01   4.2145192509E+01
  2.2590181241E+01   2.2809940633E+01   4.5853955040E+01
  2.6864534822E+01   2.2908481376E+01   4.9437920924E+01
  5.3448320160E+01   2.6957689750E+01   2.7102668952E+01
  4.4038714725E+00   2.7168113580E+01   3.0307210682E+01
  7.9229970757E+00   2.7258431791E+01   3.4669182701E+01
  1.1099677714E+01   2.6231663849E+01   3.8135604528E+01
  1.4843590373E+01   2.6849985590E+01   4.2333033483E+01
  1.9140062390E+01   2.6727341615E+01   4.6392492677E+01
  2.2984383664E+01   2.6966282480E+01   4.9457828378E+01
  3.9809259047E-01   3.0524945757E+01   3.0868146189E+01
  4.1946902522E+00   3.1008790670E+01   3.4601212862E+01
  8.1007628308E+00   3.0780880113E+01   3.8130864750E+01
  1.1461450037E+01   3.0413937256E+01   4.2109760613E+01
  1.5429337928E+01   3.0991708228E+01   4.5830941732E+01
  1.9149405884E+01   3.0994751253E+01   4.9950531750E+01
  2.8473602700E-02   3.4352174636E+01   3.4291119099E+01
  4.1918601466E+00   3.4143670059E+01   3.8296774019E+01
  7.2420621994E+00   3.4926291482E+01   4.1865962015E+01
  1.1557529380E+01   3.4807995210E+01   4.6175525526E+01
  1.4730141123E+01   3.4653651635E+01   5.0165612587E+01
  1.8689178812E-01   3.8295721831E+01   3.7582949199E+01
  3.4518977464E+00   3.8759533709E+01   4.1896916414E+01
  7.7539713502E+00   3.8067721446E+01   4.6068759460E+01
  1.1864333135E+01   3.8517119672E+01   4.9680583075E+01
  9.9683617625E-02   4.2291629232E+01   4.1885190397E+01
  4.0025206423E+00   4.2258512095E+01   4.5575401337E+01
  7.5766940995E+00   4.1716699754E+01   5.0058285487E+01
  7.7749477835E-02   4.6220960753E+01   4.5249105683E+01
  3.8570768832E+00   4.6338890256E+01   4.9185244725E+01
  5.3343032658E+01   4.9853277431E+01   5.0088140847E+01
  7.7150086996E+00   5.2963697294E+01   2.2885287160E-01
  1.1286452280E+01   5.3161141503E+01   3.8889939900E+00
  1.5745871790E+01   5.3341947434E+01   7.5105573692E+00
  1.9751954913E+01   5.2979078875E+01   1.1443218394E+01
  2.2823779892E+01   5.3357794965E+01   1.5437844042E+01
  2.6821777449E+01   1.4264962893E-01   1.8754172435E+01
  3.0379287718E+01   5.2892331458E+01   2.3145865907E+01
  3.4378574617E+01   5.3244716504E+01   2.6846665595E+01
  3.8821254736E+01   2.8557692966E-01   3.0625136303E+01
  4.1774082763E+01   1.9109607047E-01   3.4707548985E+01
  4.5778402448E+01   2.8405384046E-01   3.7888773828E+01
  5.0108236130E+01   3.9912437186E-01   4.2384528233E+01
  3.8473791801E+00   3.1691006632E+00   1.5470779421E-01
  7.9086611336E+00   4.0033279840E+00   3.9006965511E+00
  1.1354166027E+01   3.6222361269E+00   7.3505783958E+00
  1.4955871771E+01   3.9857749237E+00   1.1481827640E+01
  1.8940762190E+01   4.1458377547E+00   1.5223506825E+01
  2.2675870386E+01   4.1046656499E+00   1.8975221886E+01
  2.6395130534E+01   3.8265099220E+00   2.2651970880E+01
  3.0785486576E+01   3.9827629432E+00   2.6835536566E+01
  3.4648728474E+01   3.5640484374E+00   3.0340648590E+01
  3.8390148255E+01   4.0254583202E+00   3.4488116285E+01
  4.1993950446E+01   4.0039858214E+00   3.8376379750E+01
  4.5867691124E+01   4.2408843783E+00   4.2073868966E+01
  4.9515585334E+01   3.6191207986E+00   4.6343344381E+01
  4.1839029831E-02   7.9478651432E+00   6.4454550195E-02
  3.9260666993E+00   7.4866043873E+00   3.9732230198E+00
  7.5243428405E+00   8.0073491396E+00   7.9715876738E+00
  1.1432408630E+01   7.2002706884E+00   1.1642232957E+01
  1.5364841581E+01   7.6603233131E+00   1.5107411839E+01
  1.9336018871E+01   7.5152779247E+00   1.8952784283E+01
  2.3114688248E+01   7.2104321118E+00   2.3443182783E+01
  2.6978138155E+01   7.7969904092E+00   2.7277184941E+01
  3.0957285800E+01   7.9218629606E+00   3.0565402623E+01
  3.4827334443E+01   7.2331899726E+00   3.4442400253E+01
  3.8485609612E+01   8.2200502444E+00   3.8018653516E+01
  4.1881571454E+01   7.5811734080E+00   4.1884639128E+01
  4.6113989939E+01   7.8360902030E+00   4.5931751218E+01
  4.9972076337E+01   7.6053911434E+00   4.9770093543E+01
  1.3920485256E-01   1.1593692474E+01   3.4401857172E+00
  4.2063868817E+00   1.1831772879E+01   7.0333672516E+00
  7.2917081407E+00   1.1123695901E+01   1.1868331159E+01
  1.1762376164E+01   1.1529514976E+01   1.5691977678E+01
  1.5291612481E+01   1.1750817063E+01   1.9059253717E+01
  1.8947773387E+01   1.1107723017E+01   2.2664491789E+01
  2.2759965079E+01   1.1324539735E+01   2.6638668136E+01
  2.6999625708E+01   1.1539356762E+01   3.0991280519E+01
  3.0698653654E+01   1.1464580319E+01   3.4703286389E+01
  3.4773795952E+01   1.1756970722E+01   3.8147888866E+01
  3.8053106527E+01   1.1319995252E+01   4.1806266745E+01
  4.2073638765E+01   1.1400893712E+01   4.5976983502E+01
  4.6139115677E+01   1.1993073519E+01   4.9187843853E+01
  1.0012128594E-01   1.5670574018E+01   7.1348464767E+00
  3.5772973531E+00   1.5284214834E+01   1.1090747153E+01
  8.5114625502E+00   1.5877674100E+01   1.5711973518E+01
  1.1666494410E+01   1.5509315481E+01   1.9426316719E+01
  1.5505491675E+01   1.5832670430E+01   2.2889101995E+01
  1.9063775887E+01   1.5252984882E+01   2.6971964507E+01
  2.3590009475E+01   1.5161535516E+01   3.0531796904E+01
  2.6730369965E+01   1.5217415261E+01   3.4529524128E+01
  3.0790739737E+01   1.5830264540E+01   3.7769220008E+01
  3.4070417708E+01   1.5291098517E+01   4.2212713872E+01
  3.8212795808E+01   1.5450503338E+01   4.5702129009E+01
  4.1828954438E+01   1.5228808434E+01   4.9775916203E+01
  5.3427423401E+01   1.9319798055E+01   1.1698257376E+01
  4.2544899268E+00   1.8926869718E+01   1.4892209196E+01
  6.8804476705E+00   1.9391731321E+01   1.9464447312E+01
  1.1484655040E+01   1.9524073646E+01   2.3305788085E+01
  1.5626205850E+01   1.9483925330E+01   2.6687593232E+01
  1.9549095599E+01   1.9400783769E+01   3.0813932751E+01
  2.2919461572E+01   1.8930317125E+01   3.4920279052E+01
  2.6395062311E+01   1.9346044272E+01   3.8272982357E+01
  3.0469531221E+01   1.9138262089E+01   4.2119189459E+01
  3.4192418261E+01   1.9249211241E+01   4.5554125719E+01
  3.8728286509E+01   1.9304745842E+01   4.9983728997E+01
  5.3275472199E+01   2.2959940136E+01   1.5406419515E+01
  3.7335517842E+00   2.2792457032E+01   1.8598410458E+01
  7.4557091978E+00   2.2752327276E+01   2.3496059621E+01
  1.1702950044E+01   2.2386657846E+01   2.7167679094E+01
  1.5165306781E+01   2.2939092523E+01   3.0417821155E+01
  1.8639657277E+01   2.2971883547E+01   3.3938655525E+01
  2.2766189350E+01   2.3148171567E+01   3.7874869150E+01
  2.6662921880E+01   2.2575671702E+01   4.2071404230E+01
  3.1229782865E+01   2.3115147948E+01   4.5422453341E+01
  3.4345229383E+01   2.2947340363E+01   5.0060648078E+01
  5.3219651019E+01   2.6620391706E+01   1.9350766335E+01
  3.9501597800E+00   2.6546289240E+01   2.3235108790E+01
  8.0491697426E+00   2.6627743364E+01   2.7067612684E+01
  1.1631577361E+01   2.6299861645E+01   3.0639342603E+01
  1.5521103043E+01   2.6925803496E+01   3.4292878231E+01
  1.9044686252E+01   2.6510677756E+01   3.8337996015E+01
  2.3146684031E+01   2.6837897606E+01   4.2355630114E+01
  2.6993539000E+01   2.6713683540E+01   4.5954109889E+01
  3.0844345846E+01   2.6528390121E+01   4.9651883147E+01
  5.3071532153E+01   3.0835508647E+01   2.2956721478E+01
  4.0111816474E+00   3.0710645428E+01   2.6777233187E+01
  7.6719851328E+00   3.0863053625E+01   3.0607885746E+01
  1.2046095805E+01   3.0557320404E+01   3.4239295413E+01
  1.4974320867E+01   3.0774012416E+01   3.7951984641E+01
  1.8958591325E+01   3.0737686717E+01   4.1967392769E+01
  2.2644583264E+01   3.1051710803E+01   4.5815744521E+01
  2.6744179485E+01   3.0743598502E+01   4.9781385102E+01
  5.3040246036E+01   3.4572613050E+01   2.6840757633E+01
  3.8676997679E+00   3.4350368774E+01   3.0249300005E+01
  8.1522043061E+00   3.4514422706E+01   3.4847446229E+01
  1.1619852022E+01   3.4624017580E+01   3.8594903473E+01
  1.5355785658E+01   3.4496724445E+01   4.2027762615E+01
  1.9119320757E+01   3.4936864288E+01   4.5786618998E+01
  2.3313841559E+01   3.4190547524E+01   4.9682450145E+01
  5.3519594239E+01   3.8613055194E+01   3.0571741647E+01
  4.0169459785E+00   3.8186094713E+01   3.4448292023E+01
  7.7435098600E+00   3.8484704364E+01   3.8403022615E+01
  1.1148710003E+01   3.8678432422E+01   4.2322379618E+01
  1.4772179766E+01   3.8510264894E+01   4.5767635067E+01
  1.8864204224E+01   3.8722608337E+01   4.9512175765E+01
  5.2991739898E+01   4.1842401590E+01   3.4173686917E+01
  3.5807685629E+00   4.2229799527E+01   3.8375725180E+01
  7.6536315407E+00   4.2212532813E+01   4.2089111199E+01
  1.0951622489E+01   4.2328841441E+01   4.6109505772E+01
  1.5613832122E+01   4.2032505267E+01   4.9739272499E+01
  5.3455216865E+01   4.6268754269E+01   3.8013427075E+01
  4.0644549114E+00   4.5934483573E+01   4.1679742335E+01
  7.3808286770E+00   4.5916395274E+01   4.5626007413E+01
  1.1557113971E+01   4.6096194362E+01   4.9826129171E+01
  5.3449878120E+01   5.0078095570E+01   4.1954750043E+01
  3.7193681509E+00   5.0177388118E+01   4.6001743691E+01
  7.7948028144E+00   4.9463656552E+01   4.9662269516E+01
  1.5067877127E+01   5.0487817740E-02   5.3438650153E+01
  1.9741999174E+01   5.3132349391E+01   3.7891524629E+00
  2.2745935143E+01   5.3354950599E+01   7.5735558771E+00
  2.7007767990E+01   1.3426129907E-01   1.1736788736E+01
  3.0429769019E+01   2.2222632331E-01   1.5689606115E+01
  3.4340025026E+01   5.3417298616E+01   1.9246601799E+01
  3.7881565402E+01   5.3245464032E+01   2.3023753150E+01
  4.2336869308E+01   5.3539886532E+01   2.6369688866E+01
  4.5469811420E+01   5.3482460086E+01   3.0633897325E+01
  5.0490889853E+01   7.2839100768E-02   3.4385287978E+01
  1.1752117774E+01   3.9959414183E+00   5.3046598290E+01
  1.5407409418E+01   3.3612515491E+00   3.6434927702E+00
  1.9480499619E+01   3.7292053586E+00   7.2228929736E+00
  2.2412688648E+01   3.7308634167E+00   1.2053280398E+01
  2.6676847209E+01   3.9411675915E+00   1.5663938520E+01
  3.0257408099E+01   4.2305269330E+00   1.8660068273E+01
  3.4544461108E+01   3.2244437876E+00   2.3707290402E+01
  3.8422130370E+01   3.5967507127E+00   2.6966689185E+01
  4.2375729519E+01   3.4369708828E+00   3.1049228993E+01
  4.5585230200E+01   3.8303448454E+00   3.4437456689E+01
  4.9751892719E+01   4.0979411656E+00   3.8490835110E+01
  8.0948400322E+00   7.2277598509E+00   5.3384873352E+01
  1.1208583638E+01   8.0505241080E+00   3.4765364506E+00
  1.4891261271E+01   7.6136126181E+00   7.7700914906E+00
  1.8636999190E+01   7.1641641457E+00   1.0736125971E+01
  2.2753409575E+01   8.0266408136E+00   1.5066907196E+01
  2.6814630393E+01   7.6362481773E+00   1.9370626413E+01
  3.0240798814E+01   7.7357280007E+00   2.3222179428E+01
  3.4463933297E+01   7.6242825312E+00   2.7105839154E+01
  3.8429345283E+01   7.4161394642E+00   3.0738679622E+01
  4.2075764884E+01   7.5700559442E+00   3.4604187384E+01
  4.6344355885E+01   7.6524046287E+00   3.8282685096E+01
  4.9427793796E+01   7.9031607892E+00   4.1926825868E+01
  3.8245650069E+00   1.1501916415E+01   5.3242474855E+01
  7.4738617567E+00   1.1488797443E+01   3.7652192440E+00
  1.1367149824E+01   1.1453002641E+01   7.8535512224E+00
  1.5078013215E+01   1.1580501768E+01   1.1327165046E+01
  1.8977982817E+01   1.1632316280E+01   1.5648625029E+01
  2.2934948619E+01   1.1342143339E+01   1.8670075887E+01
  2.7047060216E+01   1.1235239580E+01   2.2790645446E+01
  3.0257927864E+01   1.2222737412E+01   2.6716245385E+01
  3.4419427775E+01   1.1765992406E+01   3.0641373253E+01
  3.8673417441E+01   1.1380013452E+01   3.3688160422E+01
  4.1992181530E+01   1.1850115085E+01   3.8017410693E+01
  4.6102255152E+01   1.1866949330E+01   4.1659578238E+01
  4.9602482701E+01   1.1476557274E+01   4.5688501935E+01
  2.0156534578E-01   1.5375691791E+01   5.3334290108E+01
  4.1283642902E+00   1.5770035839E+01   4.0097371924E+00
  7.7963636585E+00   1.5135108550E+01   7.8658943106E+00
  1.1319615371E+01   1.4867612442E+01   1.1782339607E+01
  1.5864912419E+01   1.5071002793E+01   1.4914617596E+01
  1.8976383546E+01   1.5518244646E+01   1.8889223615E+01
  2.2381787688E+01   1.4814262344E+01   2.2723481419E+01
  2.6495119883E+01   1.5021367610E+01   2.6599616755E+01
  3.0168477698E+01   1.5430675836E+01   3.1154290702E+01
  3.4487018725E+01   1.5299338398E+01   3.4528642621E+01
  3.8807467894E+01   1.5929733831E+01   3.8174847502E+01
  4.1810059426E+01   1.4849371232E+01   4.2053553642E+01
  4.5857712080E+01   1.5242883703E+01   4.5777113964E+01
  4.9397169764E+01   1.5534619674E+01   5.0010948998E+01
  3.0572512845E-01   1.9149811659E+01   3.4994622219E+00
  4.4793270693E+00   1.8838841301E+01   7.5527084434E+00
  7.9808054115E+00   1.9218619319E+01   1.1832834982E+01
  1.1833879125E+01   1.9563010854E+01   1.5134807172E+01
  1.5271949772E+01   1.9283983066E+01   1.9290665553E+01
  1.8974720715E+01   1.9310399580E+01   2.2730788195E+01
  2.2860720430E+01   1.9099149658E+01   2.7081114741E+01
  2.6731067918E+01   1.9043441422E+01   3.0855273497E+01
  3.0112892324E+01   1.8973979344E+01   3.4340954005E+01
  3.4623284693E+01   1.9222607994E+01   3.7802441439E+01
  3.8072270661E+01   1.9071384164E+01   4.2219687836E+01
  4.2089911990E+01   1.9300405650E+01   4.5775625079E+01
  4.5582225643E+01   1.9191864797E+01   4.9638311737E+01
  1.5549243322E-01   2.3288083800E+01   8.0526704587E+00
  3.7408507077E+00   2.2820030688E+01   1.1549104725E+01
  7.7050273895E+00   2.2915212374E+01   1.5551822603E+01
  1.1225363449E+01   2.2944011769E+01   1.9200945667E+01
  1.4977703431E+01   2.3000257675E+01   2.2660900099E+01
  1.8978539169E+01   2.3100018758E+01   2.7050861340E+01
  2.3090258489E+01   2.2908307326E+01   3.0810176460E+01
  2.7173005132E+01   2.3129535398E+01   3.4963193822E+01
  3.0403911548E+01   2.3380725402E+01   3.8423545607E+01
  3.4304195143E+01   2.2927841705E+01   4.1870362419E+01
  3.8184634142E+01   2.2753030108E+01   4.5535852949E+01
  4.2297317929E+01   2.3236482800E+01   4.9554115231E+01
  3.3353440075E-01   2.6403145639E+01   1.1981171759E+01
  3.7449768654E+00   2.6628291268E+01   1.5336417022E+01
  7.8302038885E+00   2.6393511103E+01   1.9308866436E+01
  1.1885178594E+01   2.7201694977E+01   2.3298938213E+01
  1.5400800828E+01   2.6345336429E+01   2.6698990757E+01