
.Version 9.6.2 of ABINIT 
.(MPI version, prepared for a x86_64_linux_gnu10.3 computer) 

.Copyright (C) 1998-2021 ABINIT group . 
 ABINIT comes with ABSOLUTELY NO WARRANTY.
 It is free software, and you are welcome to redistribute it
 under certain conditions (GNU General Public License,
 see ~abinit/COPYING or http://www.gnu.org/copyleft/gpl.txt).

 ABINIT is a project of the Universite Catholique de Louvain,
 Corning Inc. and other collaborators, see ~abinit/doc/developers/contributors.txt .
 Please read https://docs.abinit.org/theory/acknowledgments for suggested
 acknowledgments of the ABINIT effort.
 For more information, see https://www.abinit.org .

.Starting date : Fri  6 Jan 2023.
- ( at 17h24 )
  
- input  file    -> NiC2O4.in
- output file    -> NiC2O4.out
- root for input  files -> abi
- root for output files -> abo


 Symmetries : space group P1 (#  1); Bravais aP (primitive triclinic)
================================================================================
 Values of the parameters that define the memory need of the present run
     intxc =       0    ionmov =       0      iscf =       7    lmnmax =       6
     lnmax =       6     mgfft =     180  mpssoang =       3    mqgrid =    7242
     natom =      14  nloc_mem =       1    nspden =       2   nspinor =       1
    nsppol =       2      nsym =       1    n1xccc =       0    ntypat =       3
    occopt =       3   xclevel =       2
-    mband =          65        mffmem =           1         mkmem =           1
       mpw =       99350          nfft =     1944000          nkpt =           4
================================================================================
P This job should need less than                    1285.382 Mbytes of memory.
  Rough estimation (10% accuracy) of disk space for files :
_ WF disk file :   1576.601 Mbytes ; DEN or POT disk file :     29.665 Mbytes.
================================================================================

--------------------------------------------------------------------------------
------------- Echo of variables that govern the present computation ------------
--------------------------------------------------------------------------------
-
- outvars: echo of selected default values                                      
-   iomode0 =  0 , fftalg0 =312 , wfoptalg0 =  0
-
- outvars: echo of global parameters not present in the input file              
-  max_nthreads =    0
-
 -outvars: echo values of preprocessed input variables --------
-          iomode           1
            acell      1.0300000000E+00  1.0300000000E+00  1.0300000000E+00 Bohr
              amu      5.86900000E+01  1.20110000E+01  1.59994000E+01
        autoparal           1
     densfor_pred           6
           diemac      1.00000000E+00
           diemix      4.00000000E-01
             ecut      2.50000000E+02 Hartree
           ecutsm      5.00000000E-01 Hartree
-          fftalg         312
              ixc     -263267
              kpt      2.50000000E-01  2.50000000E-01  2.50000000E-01
                      -2.50000000E-01  2.50000000E-01  2.50000000E-01
                       2.50000000E-01 -2.50000000E-01  2.50000000E-01
                      -2.50000000E-01 -2.50000000E-01  2.50000000E-01
         kptrlatt        2    0    0      0    2    0      0    0    2
          kptrlen      1.98019629E+01
P           mkmem           1
            natom          14
            nband          65
            ngfft         150     144     180
             nkpt           4
-           npfft           2
-        np_spkpt           8
           nspden           2
           nsppol           2
            nstep          60
             nsym           1
           ntypat           3
              occ      1.000000  1.000000  1.000000  1.000000  1.000000  1.000000
                       1.000000  1.000000  1.000000  1.000000  1.000000  1.000000
                       1.000000  1.000000  1.000000  1.000000  1.000000  1.000000
                       1.000000  1.000000  1.000000  1.000000  1.000000  1.000000
                       1.000000  1.000000  1.000000  1.000000  1.000000  1.000000
                       1.000000  1.000000  1.000000  1.000000  1.000000  1.000000
                       1.000000  1.000000  1.000000  1.000000  1.000000  1.000000
                       1.000000  1.000000  1.000000  1.000000  1.000000  1.000000
                       1.000000  1.000000  0.000000  0.000000  0.000000  0.000000
                       0.000000  0.000000  0.000000  0.000000  0.000000  0.000000
                       0.000000  0.000000  0.000000  0.000000  0.000000
                       1.000000  1.000000  1.000000  1.000000  1.000000  1.000000
                       1.000000  1.000000  1.000000  1.000000  1.000000  1.000000
                       1.000000  1.000000  1.000000  1.000000  1.000000  1.000000
                       1.000000  1.000000  1.000000  1.000000  1.000000  1.000000
                       1.000000  1.000000  1.000000  1.000000  1.000000  1.000000
                       1.000000  1.000000  1.000000  1.000000  1.000000  1.000000
                       1.000000  1.000000  1.000000  1.000000  1.000000  1.000000
                       1.000000  1.000000  1.000000  1.000000  1.000000  1.000000
                       1.000000  1.000000  0.000000  0.000000  0.000000  0.000000
                       0.000000  0.000000  0.000000  0.000000  0.000000  0.000000
                       0.000000  0.000000  0.000000  0.000000  0.000000
                       1.000000  1.000000  1.000000  1.000000  1.000000  1.000000
                       1.000000  1.000000  1.000000  1.000000  1.000000  1.000000
                       1.000000  1.000000  1.000000  1.000000  1.000000  1.000000
                       1.000000  1.000000  1.000000  1.000000  1.000000  1.000000
                       1.000000  1.000000  1.000000  1.000000  1.000000  1.000000
                       1.000000  1.000000  1.000000  1.000000  1.000000  1.000000
                       1.000000  1.000000  1.000000  1.000000  1.000000  1.000000
                       1.000000  1.000000  1.000000  1.000000  1.000000  1.000000
                       1.000000  1.000000  0.000000  0.000000  0.000000  0.000000
                       0.000000  0.000000  0.000000  0.000000  0.000000  0.000000
                       0.000000  0.000000  0.000000  0.000000  0.000000
                       1.000000  1.000000  1.000000  1.000000  1.000000  1.000000
                       1.000000  1.000000  1.000000  1.000000  1.000000  1.000000
                       1.000000  1.000000  1.000000  1.000000  1.000000  1.000000
                       1.000000  1.000000  1.000000  1.000000  1.000000  1.000000
                       1.000000  1.000000  1.000000  1.000000  1.000000  1.000000
                       1.000000  1.000000  1.000000  1.000000  1.000000  1.000000
                       1.000000  1.000000  1.000000  1.000000  1.000000  1.000000
                       1.000000  1.000000  1.000000  1.000000  1.000000  1.000000
                       1.000000  1.000000  0.000000  0.000000  0.000000  0.000000
                       0.000000  0.000000  0.000000  0.000000  0.000000  0.000000
                       0.000000  0.000000  0.000000  0.000000  0.000000
                       1.000000  1.000000  1.000000  1.000000  1.000000  1.000000
                       1.000000  1.000000  1.000000  1.000000  1.000000  1.000000
                       1.000000  1.000000  1.000000  1.000000  1.000000  1.000000
                       1.000000  1.000000  1.000000  1.000000  1.000000  1.000000
                       1.000000  1.000000  1.000000  1.000000  1.000000  1.000000
                       1.000000  1.000000  1.000000  1.000000  1.000000  1.000000
                       1.000000  1.000000  1.000000  1.000000  1.000000  1.000000
                       1.000000  1.000000  1.000000  1.000000  1.000000  1.000000
                       1.000000  1.000000  0.000000  0.000000  0.000000  0.000000
                       0.000000  0.000000  0.000000  0.000000  0.000000  0.000000
                       0.000000  0.000000  0.000000  0.000000  0.000000
                       1.000000  1.000000  1.000000  1.000000  1.000000  1.000000
                       1.000000  1.000000  1.000000  1.000000  1.000000  1.000000
                       1.000000  1.000000  1.000000  1.000000  1.000000  1.000000
                       1.000000  1.000000  1.000000  1.000000  1.000000  1.000000
                       1.000000  1.000000  1.000000  1.000000  1.000000  1.000000
                       1.000000  1.000000  1.000000  1.000000  1.000000  1.000000
                       1.000000  1.000000  1.000000  1.000000  1.000000  1.000000
                       1.000000  1.000000  1.000000  1.000000  1.000000  1.000000
                       1.000000  1.000000  0.000000  0.000000  0.000000  0.000000
                       0.000000  0.000000  0.000000  0.000000  0.000000  0.000000
                       0.000000  0.000000  0.000000  0.000000  0.000000
                       1.000000  1.000000  1.000000  1.000000  1.000000  1.000000
                       1.000000  1.000000  1.000000  1.000000  1.000000  1.000000
                       1.000000  1.000000  1.000000  1.000000  1.000000  1.000000
                       1.000000  1.000000  1.000000  1.000000  1.000000  1.000000
                       1.000000  1.000000  1.000000  1.000000  1.000000  1.000000
                       1.000000  1.000000  1.000000  1.000000  1.000000  1.000000
                       1.000000  1.000000  1.000000  1.000000  1.000000  1.000000
                       1.000000  1.000000  1.000000  1.000000  1.000000  1.000000
                       1.000000  1.000000  0.000000  0.000000  0.000000  0.000000
                       0.000000  0.000000  0.000000  0.000000  0.000000  0.000000
                       0.000000  0.000000  0.000000  0.000000  0.000000
                       1.000000  1.000000  1.000000  1.000000  1.000000  1.000000
                       1.000000  1.000000  1.000000  1.000000  1.000000  1.000000
                       1.000000  1.000000  1.000000  1.000000  1.000000  1.000000
                       1.000000  1.000000  1.000000  1.000000  1.000000  1.000000
                       1.000000  1.000000  1.000000  1.000000  1.000000  1.000000
                       1.000000  1.000000  1.000000  1.000000  1.000000  1.000000
                       1.000000  1.000000  1.000000  1.000000  1.000000  1.000000
                       1.000000  1.000000  1.000000  1.000000  1.000000  1.000000
                       1.000000  1.000000  0.000000  0.000000  0.000000  0.000000
                       0.000000  0.000000  0.000000  0.000000  0.000000  0.000000
                       0.000000  0.000000  0.000000  0.000000  0.000000
           occopt           3
           ortalg          -2
        paral_kgb           1
           prtden           0
           prteig           0
          prtkden           1
            prtwf           0
            rprim      0.0000000000E+00  1.0137047334E+01  0.0000000000E+00
                       9.6126033568E+00  0.0000000000E+00  0.0000000000E+00
                       0.0000000000E+00 -5.7455806104E+00 -9.8776109362E+00
           shiftk      5.00000000E-01  5.00000000E-01  5.00000000E-01
          spgroup           1
           spinat      0.0000000000E+00  0.0000000000E+00  1.0000000000E+00
                       0.0000000000E+00  0.0000000000E+00  1.0000000000E+00
                       0.0000000000E+00  0.0000000000E+00  1.0000000000E+00
                       0.0000000000E+00  0.0000000000E+00  1.0000000000E+00
                       0.0000000000E+00  0.0000000000E+00  1.0000000000E+00
                       0.0000000000E+00  0.0000000000E+00  1.0000000000E+00
                       0.0000000000E+00  0.0000000000E+00  1.0000000000E+00
                       0.0000000000E+00  0.0000000000E+00  1.0000000000E+00
                       0.0000000000E+00  0.0000000000E+00  1.0000000000E+00
                       0.0000000000E+00  0.0000000000E+00  1.0000000000E+00
                       0.0000000000E+00  0.0000000000E+00  1.0000000000E+00
                       0.0000000000E+00  0.0000000000E+00  1.0000000000E+00
                       0.0000000000E+00  0.0000000000E+00  1.0000000000E+00
                       0.0000000000E+00  0.0000000000E+00  1.0000000000E+00
           toldfe      1.00000000E-06 Hartree
           tsmear      1.00000000E-03 Hartree
            typat      1  1  2  2  2  2  3  3  3  3  3  3  3  3
          usekden           1
         wfoptalg         114
              wtk        0.25000    0.25000    0.25000    0.25000
           xangst      2.6196868650E+00 -1.5658216092E+00 -2.6919083901E+00
                       0.0000000000E+00  0.0000000000E+00  0.0000000000E+00
                       3.2509632876E+00  1.2267492226E+00 -2.2118280640E+00
                       6.3127642260E-01  2.7326524121E+00 -4.8008032611E-01
                       1.9884104424E+00  1.1668308028E+00 -3.1719887162E+00
                       4.6080973074E+00 -3.3907238659E-01 -4.9037364541E+00
                       1.5327997422E+00  2.3016083960E+00 -3.6532319468E+00
                       4.1524866072E+00 -1.4738499797E+00 -4.4224932236E+00
                       3.7065739878E+00  9.1971629504E-02 -1.7305848335E+00
                       1.0868871228E+00  3.8674300052E+00 -9.6132355665E-01
                       3.7496940336E+00  2.4025084969E+00 -1.9719790265E+00
                       1.1300071686E+00  1.5568931377E+00 -7.1992936367E-01
                       1.4896796964E+00 -8.9284714847E-03 -3.4118377538E+00
                       4.1093665614E+00  8.3668688773E-01 -4.6638874166E+00
            xcart      4.9504907287E+00 -2.9589740144E+00 -5.0869696322E+00
                       0.0000000000E+00  0.0000000000E+00  0.0000000000E+00
                       6.1434302816E+00  2.3182200645E+00 -4.1797492940E+00
                       1.1929395529E+00  5.1639646751E+00 -9.0722033814E-01
                       3.7575511759E+00  2.2049906608E+00 -5.9941899703E+00
                       8.7080419046E+00 -6.4075394989E-01 -9.2667189262E+00
                       2.8965717293E+00  4.3494095335E+00 -6.9036078793E+00
                       7.8470624580E+00 -2.7851728226E+00 -8.3573010172E+00
                       7.0044097282E+00  1.7380119176E-01 -3.2703313850E+00
                       2.0539189994E+00  7.3083835479E+00 -1.8166382472E+00
                       7.0858948055E+00  4.5400830912E+00 -3.7265002998E+00
                       2.1354040768E+00  2.9421016485E+00 -1.3604693324E+00
                       2.8150866519E+00 -1.6872365891E-02 -6.4474389645E+00
                       7.7655773806E+00  1.5811090768E+00 -8.8134699320E+00
             xred     -3.0692094551E-18  5.0000000000E-01  5.0000000000E-01
                       0.0000000000E+00  0.0000000000E+00  0.0000000000E+00
                       4.5488100000E-01  6.2048700000E-01  4.1082900000E-01
                       5.4511900000E-01  1.2048700000E-01  8.9171000000E-02
                       5.4511900000E-01  3.7951300000E-01  5.8917100000E-01
                       4.5488100000E-01  8.7951300000E-01  9.1082900000E-01
                       8.0116400000E-01  2.9255400000E-01  6.7855800000E-01
                       1.9883600000E-01  7.9255400000E-01  8.2144200000E-01
                       1.9883600000E-01  7.0744600000E-01  3.2144200000E-01
                       8.0116400000E-01  2.0744600000E-01  1.7855800000E-01
                       6.4242900000E-01  7.1567600000E-01  3.6627900000E-01
                       3.5757100000E-01  2.1567600000E-01  1.3372100000E-01
                       3.5757100000E-01  2.8432400000E-01  6.3372100000E-01
                       6.4242900000E-01  7.8432400000E-01  8.6627900000E-01
            znucl       28.00000    6.00000    8.00000

================================================================================

 chkinp: Checking input parameters for consistency.

================================================================================
== DATASET  1 ==================================================================
-   mpi_nproc: 16, omp_nthreads: -1 (-1 if OMP is not activated)


--- !DatasetInfo
iteration_state: {dtset: 1, }
dimensions: {natom: 14, nkpt: 4, mband: 65, nsppol: 2, nspinor: 1, nspden: 2, mpw: 99350, }
cutoff_energies: {ecut: 250.0, pawecutdg:  -1.0, }
electrons: {nelect:   1.00000000E+02, charge:   0.00000000E+00, occopt:   3.00000000E+00, tsmear:   1.00000000E-03, }
meta: {optdriver: 0, ionmov: 0, optcell: 0, iscf: 7, paral_kgb: 1, }
...

 Real(R)+Recip(G) space primitive vectors, cartesian coordinates (Bohr,Bohr^-1):
 R(1)=  0.0000000 10.4411588  0.0000000  G(1)=  0.0000000  0.0957748 -0.0557100
 R(2)=  9.9009815  0.0000000  0.0000000  G(2)=  0.1010001  0.0000000  0.0000000
 R(3)=  0.0000000 -5.9179480-10.1739393  G(3)=  0.0000000  0.0000000 -0.0982903
 Unit cell volume ucvol=  1.0517586E+03 bohr^3
 Angles (23,13,12)=  9.00000000E+01  1.20185586E+02  9.00000000E+01 degrees

 getcut: wavevector=  0.0000  0.0000  0.0000  ngfft= 150 144 180
         ecut(hartree)=    250.000   => boxcut(ratio)=   2.01845

--- Pseudopotential description ------------------------------------------------
- pspini: atom type   1  psp file is ../Ni.pot
- pspatm: opening atomic psp file    ../Ni.pot
- Ni    ONCVPSP-4.0.1  r_core=   2.18101   2.18101   2.24723
- 28.00000  18.00000    200312                znucl, zion, pspdat
    8   11    2    4       600   0.00000      pspcod,pspxc,lmax,lloc,mmax,r2well
    5.99000000000000    0.00000000000000    0.00000000000000   rchrg,fchrg,qchrg
     nproj     2     2     2
     extension_switch     1
  pspatm : epsatm=   38.47316822
         --- l  ekb(1:nproj) -->
             0   -3.440917   -0.196078
             1   -5.406223   -1.725842
             2   -7.274254   -2.503385
 pspatm: atomic psp has been read  and splines computed

- pspini: atom type   2  psp file is ../C.pot
- pspatm: opening atomic psp file    ../C.pot
- C     ONCVPSP-4.0.1  r_core=   1.42727   1.38521
-  6.00000   4.00000    200312                znucl, zion, pspdat
    8   11    1    4       600   0.00000      pspcod,pspxc,lmax,lloc,mmax,r2well
    5.99000000000000    0.00000000000000    0.00000000000000   rchrg,fchrg,qchrg
     nproj     2     2
     extension_switch     1
  pspatm : epsatm=    2.26998732
         --- l  ekb(1:nproj) -->
             0    7.571912    0.889574
             1   -3.169338   -0.856835
 pspatm: atomic psp has been read  and splines computed

- pspini: atom type   3  psp file is ../O.pot
- pspatm: opening atomic psp file    ../O.pot
- O     ONCVPSP-4.0.1  r_core=   1.28926   1.47061
-  8.00000   6.00000    200312                znucl, zion, pspdat
    8   11    1    4       600   0.00000      pspcod,pspxc,lmax,lloc,mmax,r2well
    5.99000000000000    0.00000000000000    0.00000000000000   rchrg,fchrg,qchrg
     nproj     2     2
     extension_switch     1
  pspatm : epsatm=    3.44365635
         --- l  ekb(1:nproj) -->
             0    9.802940    1.339963
             1   -3.661294   -1.085684
 pspatm: atomic psp has been read  and splines computed

   1.13575537E+04                                ecore*ucvol(ha*bohr**3)
--------------------------------------------------------------------------------

_setup2: Arith. and geom. avg. npw (full set) are   99312.500   99312.493

================================================================================

--- !BeginCycle
iteration_state: {dtset: 1, }
solver: {iscf: 7, nstep: 60, nline: 4, wfoptalg: 114, }
tolerances: {toldfe: 1.00E-06, }
...

     iter   Etot(hartree)     deltaE(h) residm    vres2    magn
 ETOT  1  -456.46484283318    -4.56E+02 1.40E-02 3.62E+05 2.134
 ETOT  2  -455.48331127607     9.82E-01 1.11E-03 1.02E+06 4.000
 ETOT  3  -457.40798484694    -1.92E+00 4.25E-03 3.43E+05 3.978
 ETOT  4  -458.59393387277    -1.19E+00 7.15E-04 1.80E+05 3.254
 ETOT  5  -458.78442008171    -1.90E-01 1.73E-04 1.30E+05 3.210
 ETOT  6  -458.82018733434    -3.58E-02 1.48E-04 1.14E+05 3.327
 ETOT  7  -458.86525400357    -4.51E-02 4.31E-04 1.03E+05 3.916
 ETOT  8  -458.92629591494    -6.10E-02 4.45E-05 8.20E+04 4.000
 ETOT  9  -458.95627919764    -3.00E-02 1.24E-04 6.31E+04 4.000
 ETOT 10  -459.07017592028    -1.14E-01 3.88E-04 3.17E+04 4.000
 ETOT 11  -459.08803807401    -1.79E-02 5.14E-05 2.11E+04 4.000
 ETOT 12  -459.08947882040    -1.44E-03 4.66E-05 1.41E+04 4.000
 ETOT 13  -459.08343373351     6.05E-03 9.94E-05 1.44E+04 4.000
 ETOT 14  -459.08372669612    -2.93E-04 2.44E-04 6.47E+03 4.000
 ETOT 15  -459.08657473072    -2.85E-03 8.59E-05 2.19E+03 4.000
 ETOT 16  -459.09147404729    -4.90E-03 5.07E-05 1.05E+03 4.000
 ETOT 17  -459.09122700858     2.47E-04 7.66E-05 6.79E+02 4.000
 ETOT 18  -459.09329308123    -2.07E-03 2.71E-05 3.64E+02 4.000
 ETOT 19  -459.09337860911    -8.55E-05 1.57E-05 2.28E+02 4.000
 ETOT 20  -459.09345174690    -7.31E-05 1.10E-05 5.52E+01 4.000
 ETOT 21  -459.09341741044     3.43E-05 6.09E-06 3.89E+01 4.000
 ETOT 22  -459.09351601789    -9.86E-05 4.21E-06 1.11E+01 4.000
 ETOT 23  -459.09352332727    -7.31E-06 2.33E-06 6.19E+00 4.000
 ETOT 24  -459.09352300880     3.18E-07 1.56E-06 4.13E+00 4.000
 ETOT 25  -459.09352600422    -3.00E-06 8.56E-07 2.16E+00 4.000
 ETOT 26  -459.09352829691    -2.29E-06 5.73E-07 1.23E+00 4.000
 ETOT 27  -459.09352883424    -5.37E-07 3.15E-07 6.77E-01 4.000
 ETOT 28  -459.09352940179    -5.68E-07 2.08E-07 4.78E-01 4.000

 At SCF step   28, etot is converged : 
  for the second time, diff in etot=  5.676E-07 < toldfe=  1.000E-06

Result for kinetic energy density :

--------------------------------------------------------------------------------
 Total kinetic energy density [Ha/Bohr^3]
      Maximum=    1.9580E+01  at reduced coord.    0.0133    0.4931    0.0111
      Minimum=    7.6085E-04  at reduced coord.    0.0000    0.5000    0.0000
   Integrated=    2.3545E+02
 Spin up density      [Ha/Bohr^3]
      Maximum=    1.0228E+01  at reduced coord.    0.9867    0.4792    0.4833
      Minimum=    3.7735E-04  at reduced coord.    0.0000    0.5000    0.0000
   Integrated=    1.2777E+02
 Spin down density    [Ha/Bohr^3]
      Maximum=    9.8384E+00  at reduced coord.    0.0000    0.5000    0.0000
      Minimum=    3.8350E-04  at reduced coord.    0.0000    0.5000    0.0000
   Integrated=    1.0768E+02
 Magnetization (spin up - spin down) [Ha/Bohr^3]
      Maximum=    2.9833E+00  at reduced coord.    0.9800    0.9792    0.0278
      Minimum=   -2.9230E-01  at reduced coord.    0.0000    0.5000    0.0000
   Integrated=    2.0095E+01
 Relative magnetization (=zeta, between -1 and 1)
      Maximum=    3.2206E-01  at reduced coord.    0.9200    0.1042    0.3778
      Minimum=   -2.0798E-02  at reduced coord.    0.1867    0.1042    0.2944
--------------------------------------------------------------------------------

 Cartesian components of stress tensor (hartree/bohr^3)
  sigma(1 1)=  1.22825899E-02  sigma(3 2)= -6.21414994E-05
  sigma(2 2)=  1.27259971E-02  sigma(3 1)=  7.42397721E-08
  sigma(3 3)=  1.21783206E-02  sigma(2 1)= -5.07132894E-08


--- !ResultsGS
iteration_state: {dtset: 1, }
comment   : Summary of ground state results
lattice_vectors:
- [  0.0000000,  10.4411588,   0.0000000, ]
- [  9.9009815,   0.0000000,   0.0000000, ]
- [  0.0000000,  -5.9179480, -10.1739393, ]
lattice_lengths: [  10.44116,    9.90098,   11.76993, ]
lattice_angles: [ 90.000, 120.186,  90.000, ] # degrees, (23, 13, 12)
lattice_volume:   1.0517586E+03
convergence: {deltae: -5.676E-07, res2:  4.783E-01, residm:  2.079E-07, diffor: null, }
etotal    :  -4.59093529E+02
entropy   :   0.00000000E+00
fermie    :   1.01448094E-01
cartesian_stress_tensor: # hartree/bohr^3
- [  1.22825899E-02,  -5.07132894E-08,   7.42397721E-08, ]
- [ -5.07132894E-08,   1.27259971E-02,  -6.21414994E-05, ]
- [  7.42397721E-08,  -6.21414994E-05,   1.21783206E-02, ]
pressure_GPa:  -3.6469E+02
xred      :
- [ -3.0692E-18,   5.0000E-01,   5.0000E-01, Ni]
- [  0.0000E+00,   0.0000E+00,   0.0000E+00, Ni]
- [  4.5488E-01,   6.2049E-01,   4.1083E-01,  C]
- [  5.4512E-01,   1.2049E-01,   8.9171E-02,  C]
- [  5.4512E-01,   3.7951E-01,   5.8917E-01,  C]
- [  4.5488E-01,   8.7951E-01,   9.1083E-01,  C]
- [  8.0116E-01,   2.9255E-01,   6.7856E-01,  O]
- [  1.9884E-01,   7.9255E-01,   8.2144E-01,  O]
- [  1.9884E-01,   7.0745E-01,   3.2144E-01,  O]
- [  8.0116E-01,   2.0745E-01,   1.7856E-01,  O]
- [  6.4243E-01,   7.1568E-01,   3.6628E-01,  O]
- [  3.5757E-01,   2.1568E-01,   1.3372E-01,  O]
- [  3.5757E-01,   2.8432E-01,   6.3372E-01,  O]
- [  6.4243E-01,   7.8432E-01,   8.6628E-01,  O]
cartesian_forces: # hartree/bohr
- [  3.12015431E-06,  -3.58071258E-06,   2.36342884E-06, ]
- [ -2.54461418E-06,  -2.87227266E-06,   9.33855803E-07, ]
- [  1.84512102E-02,   8.67259447E-03,   1.37995812E-02, ]
- [  1.84671946E-02,  -8.67819133E-03,  -1.38126202E-02, ]
- [ -1.84546185E-02,  -8.67087911E-03,  -1.38045809E-02, ]
- [ -1.84648362E-02,   8.67957243E-03,   1.38110017E-02, ]
- [  2.02930944E-02,  -4.19073867E-02,   1.92584326E-02, ]
- [  2.02933738E-02,   4.19013015E-02,  -1.92524598E-02, ]
- [ -2.02927752E-02,   4.19027188E-02,  -1.92570402E-02, ]
- [ -2.02927705E-02,  -4.19019963E-02,   1.92525072E-02, ]
- [ -2.86493102E-02,  -4.64751676E-02,  -1.35542269E-02, ]
- [ -2.86385859E-02,   4.64847687E-02,   1.35475260E-02, ]
- [  2.86501387E-02,   4.64807854E-02,   1.35547072E-02, ]
- [  2.86373092E-02,  -4.64816673E-02,  -1.35461253E-02, ]
force_length_stats: {min:   3.94931617E-06, max:   5.62585456E-02, mean:   3.75056473E-02, }
...

 Integrated electronic and magnetization densities in atomic spheres:
 ---------------------------------------------------------------------
 Radius=ratsph(iatom), smearing ratsm=  0.0000. Diff(up-dn)=approximate z local magnetic moment.
 Atom    Radius    up_density   dn_density  Total(up+dn)  Diff(up-dn)
    1   2.00000     8.862783     7.134481     15.997264     1.728302
    2   2.00000     8.862745     7.134292     15.997037     1.728453
    3   2.00000     2.572204     2.559282      5.131487     0.012922
    4   2.00000     2.572255     2.559353      5.131607     0.012902
    5   2.00000     2.572196     2.559280      5.131477     0.012916
    6   2.00000     2.572259     2.559353      5.131611     0.012906
    7   2.00000     3.269263     3.184849      6.454112     0.084414
    8   2.00000     3.269251     3.184835      6.454085     0.084416
    9   2.00000     3.269259     3.184848      6.454107     0.084411
   10   2.00000     3.269250     3.184830      6.454080     0.084421
   11   2.00000     3.273729     3.225424      6.499154     0.048305
   12   2.00000     3.273713     3.225427      6.499140     0.048287
   13   2.00000     3.273754     3.225445      6.499199     0.048309
   14   2.00000     3.273702     3.225416      6.499118     0.048286
 ---------------------------------------------------------------------
  Sum:             54.186363    50.147114    104.333477     4.039249
 Total magnetization (from the atomic spheres):             4.039249
 Total magnetization (exact up - dn):                       4.000000
================================================================================

 ----iterations are completed or convergence reached----

 Mean square residual over all n,k,spin=   51.404E-11; max=  20.790E-08
 reduced coordinates (array xred) for   14 atoms
      -0.000000000000      0.500000000000      0.500000000000
       0.000000000000      0.000000000000      0.000000000000
       0.454881000000      0.620487000000      0.410829000000
       0.545119000000      0.120487000000      0.089171000000
       0.545119000000      0.379513000000      0.589171000000
       0.454881000000      0.879513000000      0.910829000000
       0.801164000000      0.292554000000      0.678558000000
       0.198836000000      0.792554000000      0.821442000000
       0.198836000000      0.707446000000      0.321442000000
       0.801164000000      0.207446000000      0.178558000000
       0.642429000000      0.715676000000      0.366279000000
       0.357571000000      0.215676000000      0.133721000000
       0.357571000000      0.284324000000      0.633721000000
       0.642429000000      0.784324000000      0.866279000000
 rms dE/dt=  2.7592E-01; max dE/dt=  4.8533E-01; dE/dt below (all hartree)
    1       0.000040990477     -0.000029767102      0.000002296978
    2       0.000033593543      0.000026319666     -0.000008054901
    3      -0.090548331984     -0.182683964462      0.191719506320
    4       0.090613977043     -0.182842226026     -0.191886402435
    5       0.090537628999      0.182719960925     -0.191761337663
    6      -0.090621189922      0.182821126308      0.191876993356
    7       0.437565280729     -0.200920426216     -0.052072170638
    8      -0.437494537720     -0.200923192057      0.052095810453
    9      -0.437509335370      0.200919516005      0.052057597166
   10       0.437508999565      0.200919469548     -0.052100555978
   11       0.485258206341      0.283657414901     -0.412938065105
   12      -0.485351245730      0.283551233416      0.412925594197
   13      -0.485309655777     -0.283663366422      0.412975082749
   14       0.485326071438     -0.283536341650     -0.412894105553

 cartesian coordinates (angstrom) at end:
    1      2.61968686497989    -1.56582160921271    -2.69190839012836
    2      0.00000000000000     0.00000000000000     0.00000000000000
    3      3.25096328758155     1.22674922261905    -2.21182806401609
    4      0.63127642260166     2.73265241205300    -0.48008032611227
    5      1.98841044237822     1.16683080284030    -3.17198871624063
    6      4.60809730735811    -0.33907238659366    -4.90373645414445
    7      1.53279974219465     2.30160839595538    -3.65323194677744
    8      4.15248660717454    -1.47384997970874    -4.42249322360764
    9      3.70657398776512     0.09197162950397    -1.73058483347928
   10      1.08688712278523     3.86743000516808    -0.96132355664908
   11      3.74969403356269     2.40250849694400    -1.97197902645565
   12      1.13000716858280     1.55689313772805    -0.71992936367271
   13      1.48967969639708    -0.00892847148465    -3.41183775380107
   14      4.10936656137697     0.83668688773129    -4.66388741658401

 cartesian forces (hartree/bohr) at end:
    1      0.00000312015431    -0.00000358071258     0.00000236342884
    2     -0.00000254461418    -0.00000287227266     0.00000093385580
    3      0.01845121018912     0.00867259447014     0.01379958119033
    4      0.01846719462105    -0.00867819132815    -0.01381262022389
    5     -0.01845461848627    -0.00867087910876    -0.01380458091527
    6     -0.01846483619882     0.00867957242537     0.01381100172830
    7      0.02029309443388    -0.04190738665606     0.01925843259476
    8      0.02029337378408     0.04190130154286    -0.01925245977909
    9     -0.02029277515368     0.04190271878497    -0.01925704015359
   10     -0.02029277046152    -0.04190199633823     0.01925250716513
   11     -0.02864931023571    -0.04647516756388    -0.01355422686533
   12     -0.02863858589641     0.04648476867876     0.01354752602503
   13      0.02865013868870     0.04648078540891     0.01355470724897
   14      0.02863730917546    -0.04648166733069    -0.01354612530000
 frms,max,avg= 2.4513623E-02 4.6484769E-02  -1.137E-07 -3.451E-07  1.459E-07 h/b

 cartesian forces (eV/Angstrom) at end:
    1      0.00016044477226    -0.00018412762840     0.00012153238738
    2     -0.00013084931104    -0.00014769818621     0.00004802079212
    3      0.94879929631810     0.44596270088427     0.70960293599519
    4      0.94962124878649    -0.44625050287018    -0.71027343000296
    5     -0.94897455798955    -0.44587449346281    -0.70986003216717
    6     -0.94949997384994     0.44632152173881     0.71019020362042
    7      1.04351278434494    -2.15496428484888     0.99030833787105
    8      1.04352714910817     2.15465137577344    -0.99000120336614
    9     -1.04349636629837     2.15472425328650    -0.99023673567287
   10     -1.04349612501744    -2.15468710358472     0.99000364005391
   11     -1.47320664135453    -2.38984900333923    -0.69698631039083
   12     -1.47265517370136     2.39034271247498     0.69664173935749
   13      1.47324924211643     2.39013788452120     0.69701101270861
   14      1.47258952207585    -2.39018323475877    -0.69656971118621
 frms,max,avg= 1.2605411E+00 2.3903427E+00  -5.845E-06 -1.775E-05  7.504E-06 e/A
 length scales=  1.030000000000  1.030000000000  1.030000000000 bohr
              =  0.545052524848  0.545052524848  0.545052524848 angstroms
 Fermi (or HOMO) energy (hartree) =   0.10145   Average Vxc (hartree)=  -0.38948
 Magnetization (Bohr magneton)=  4.00000000E+00
 Total spin up =  5.20000000E+01   Total spin down =  4.80000000E+01
 Eigenvalues (hartree) for nkpt=   4  k points, SPIN UP:
 kpt#   1, nband= 65, wtk=  0.25000, kpt=  0.2500  0.2500  0.2500 (reduced coord)
  -3.90279   -3.90266   -2.42742   -2.42732   -2.42700   -2.42689   -2.42097   -2.42086
  -0.79115   -0.78388   -0.76064   -0.75977   -0.71343   -0.71027   -0.69447   -0.69344
  -0.36894   -0.35265   -0.25347   -0.24931   -0.22849   -0.22537   -0.19786   -0.19268
  -0.17922   -0.17203   -0.15764   -0.14684   -0.11760   -0.11457   -0.10533   -0.09527
  -0.09178   -0.08696   -0.07514   -0.05771   -0.05548   -0.04807   -0.04608   -0.04003
  -0.02883   -0.02561   -0.02377   -0.02159   -0.00896   -0.00665   -0.00072    0.00327
   0.00619    0.01560    0.02771    0.03389    0.17591    0.18909    0.29585    0.29737
   0.31250    0.33079    0.38377    0.38852    0.41365    0.44307    0.45765    0.47243
   0.48372
      occupation numbers for kpt#   1
   1.00000    1.00000    1.00000    1.00000    1.00000    1.00000    1.00000    1.00000
   1.00000    1.00000    1.00000    1.00000    1.00000    1.00000    1.00000    1.00000
   1.00000    1.00000    1.00000    1.00000    1.00000    1.00000    1.00000    1.00000
   1.00000    1.00000    1.00000    1.00000    1.00000    1.00000    1.00000    1.00000
   1.00000    1.00000    1.00000    1.00000    1.00000    1.00000    1.00000    1.00000
   1.00000    1.00000    1.00000    1.00000    1.00000    1.00000    1.00000    1.00000
   1.00000    1.00000    1.00000    1.00000    0.00000    0.00000    0.00000    0.00000
   0.00000    0.00000    0.00000    0.00000    0.00000    0.00000    0.00000    0.00000
   0.00000
 prteigrs : prtvol=0 or 1, do not print more k-points.

 Eigenvalues (hartree) for nkpt=   4  k points, SPIN DOWN:
 kpt#   1, nband= 65, wtk=  0.25000, kpt=  0.2500  0.2500  0.2500 (reduced coord)
  -3.82185   -3.82171   -2.31237   -2.31225   -2.31073   -2.31061   -2.30819   -2.30807
  -0.78769   -0.78027   -0.75658   -0.75568   -0.70889   -0.70546   -0.68940   -0.68847
  -0.36672   -0.35028   -0.24730   -0.24247   -0.22170   -0.21930   -0.19278   -0.18637
  -0.17528   -0.16287   -0.15152   -0.14058   -0.11400   -0.09266   -0.07725   -0.06922
  -0.05675   -0.05348   -0.04597   -0.03916   -0.02608   -0.02454   -0.01863   -0.01293
  -0.00762   -0.00066    0.00988    0.01611    0.01984    0.02402    0.02474    0.02740
   0.13870    0.14677    0.15743    0.16432    0.17934    0.19120    0.29658    0.30863
   0.31439    0.34182    0.38873    0.39503    0.41839    0.44927    0.46129    0.47747
   0.48878
      occupation numbers for kpt#   1
   1.00000    1.00000    1.00000    1.00000    1.00000    1.00000    1.00000    1.00000
   1.00000    1.00000    1.00000    1.00000    1.00000    1.00000    1.00000    1.00000
   1.00000    1.00000    1.00000    1.00000    1.00000    1.00000    1.00000    1.00000
   1.00000    1.00000    1.00000    1.00000    1.00000    1.00000    1.00000    1.00000
   1.00000    1.00000    1.00000    1.00000    1.00000    1.00000    1.00000    1.00000
   1.00000    1.00000    1.00000    1.00000    1.00000    1.00000    1.00000    1.00000
   0.00000    0.00000    0.00000    0.00000    0.00000    0.00000    0.00000    0.00000
   0.00000    0.00000    0.00000    0.00000    0.00000    0.00000    0.00000    0.00000
   0.00000
 prteigrs : prtvol=0 or 1, do not print more k-points.


--- !EnergyTerms
iteration_state     : {dtset: 1, }
comment             : Components of total free energy in Hartree
kinetic             :  2.35446091478395E+02
hartree             :  1.72947331205351E+02
xc                  : -6.50148844998738E+01
Ewald energy        : -2.58319799564696E+02
psp_core            :  1.07986312246753E+01
local_psp           : -4.44918072927852E+02
non_local_psp       : -1.10032826317793E+02
internal            : -4.59093529401794E+02
'-kT*entropy'       :  4.26290451696855E-15
total_energy        : -4.59093529401794E+02
total_energy_eV     : -1.24925702561944E+04
band_energy         : -6.24981317636044E+01
...


 Cartesian components of stress tensor (hartree/bohr^3)
  sigma(1 1)=  1.22825899E-02  sigma(3 2)= -6.21414994E-05
  sigma(2 2)=  1.27259971E-02  sigma(3 1)=  7.42397721E-08
  sigma(3 3)=  1.21783206E-02  sigma(2 1)= -5.07132894E-08

-Cartesian components of stress tensor (GPa)         [Pressure= -3.6469E+02 GPa]
- sigma(1 1)=  3.61366211E+02  sigma(3 2)= -1.82826572E+00
- sigma(2 2)=  3.74411697E+02  sigma(3 1)=  2.18420914E-03
- sigma(3 3)=  3.58298502E+02  sigma(2 1)= -1.49203624E-03

== END DATASET(S) ==============================================================
================================================================================
  
 -outvars: echo values of variables after computation  --------
-          iomode           1
            acell      1.0300000000E+00  1.0300000000E+00  1.0300000000E+00 Bohr
              amu      5.86900000E+01  1.20110000E+01  1.59994000E+01
        autoparal           1
     densfor_pred           6
           diemac      1.00000000E+00
           diemix      4.00000000E-01
             ecut      2.50000000E+02 Hartree
           ecutsm      5.00000000E-01 Hartree
           etotal     -4.5909352940E+02
            fcart      3.1201543131E-06 -3.5807125769E-06  2.3634288443E-06
                      -2.5446141777E-06 -2.8722726597E-06  9.3385580305E-07
                       1.8451210189E-02  8.6725944701E-03  1.3799581190E-02
                       1.8467194621E-02 -8.6781913281E-03 -1.3812620224E-02
                      -1.8454618486E-02 -8.6708791088E-03 -1.3804580915E-02
                      -1.8464836199E-02  8.6795724254E-03  1.3811001728E-02
                       2.0293094434E-02 -4.1907386656E-02  1.9258432595E-02
                       2.0293373784E-02  4.1901301543E-02 -1.9252459779E-02
                      -2.0292775154E-02  4.1902718785E-02 -1.9257040154E-02
                      -2.0292770462E-02 -4.1901996338E-02  1.9252507165E-02
                      -2.8649310236E-02 -4.6475167564E-02 -1.3554226865E-02
                      -2.8638585896E-02  4.6484768679E-02  1.3547526025E-02
                       2.8650138689E-02  4.6480785409E-02  1.3554707249E-02
                       2.8637309175E-02 -4.6481667331E-02 -1.3546125300E-02
-          fftalg         312
              ixc     -263267
              kpt      2.50000000E-01  2.50000000E-01  2.50000000E-01
                      -2.50000000E-01  2.50000000E-01  2.50000000E-01
                       2.50000000E-01 -2.50000000E-01  2.50000000E-01
                      -2.50000000E-01 -2.50000000E-01  2.50000000E-01
         kptrlatt        2    0    0      0    2    0      0    0    2
          kptrlen      1.98019629E+01
P           mkmem           1
            natom          14
            nband          65
            ngfft         150     144     180
             nkpt           4
-           npfft           2
-        np_spkpt           8
           nspden           2
           nsppol           2
            nstep          60
             nsym           1
           ntypat           3
              occ      1.000000  1.000000  1.000000  1.000000  1.000000  1.000000
                       1.000000  1.000000  1.000000  1.000000  1.000000  1.000000
                       1.000000  1.000000  1.000000  1.000000  1.000000  1.000000
                       1.000000  1.000000  1.000000  1.000000  1.000000  1.000000
                       1.000000  1.000000  1.000000  1.000000  1.000000  1.000000
                       1.000000  1.000000  1.000000  1.000000  1.000000  1.000000
                       1.000000  1.000000  1.000000  1.000000  1.000000  1.000000
                       1.000000  1.000000  1.000000  1.000000  1.000000  1.000000
                       1.000000  1.000000  1.000000  1.000000  0.000000  0.000000
                       0.000000  0.000000  0.000000  0.000000  0.000000  0.000000
                       0.000000  0.000000  0.000000  0.000000  0.000000
                       1.000000  1.000000  1.000000  1.000000  1.000000  1.000000
                       1.000000  1.000000  1.000000  1.000000  1.000000  1.000000
                       1.000000  1.000000  1.000000  1.000000  1.000000  1.000000
                       1.000000  1.000000  1.000000  1.000000  1.000000  1.000000
                       1.000000  1.000000  1.000000  1.000000  1.000000  1.000000
                       1.000000  1.000000  1.000000  1.000000  1.000000  1.000000
                       1.000000  1.000000  1.000000  1.000000  1.000000  1.000000
                       1.000000  1.000000  1.000000  1.000000  1.000000  1.000000
                       1.000000  1.000000  1.000000  1.000000  0.000000  0.000000
                       0.000000  0.000000  0.000000  0.000000  0.000000  0.000000
                       0.000000  0.000000  0.000000  0.000000  0.000000
                       1.000000  1.000000  1.000000  1.000000  1.000000  1.000000
                       1.000000  1.000000  1.000000  1.000000  1.000000  1.000000
                       1.000000  1.000000  1.000000  1.000000  1.000000  1.000000
                       1.000000  1.000000  1.000000  1.000000  1.000000  1.000000
                       1.000000  1.000000  1.000000  1.000000  1.000000  1.000000
                       1.000000  1.000000  1.000000  1.000000  1.000000  1.000000
                       1.000000  1.000000  1.000000  1.000000  1.000000  1.000000
                       1.000000  1.000000  1.000000  1.000000  1.000000  1.000000
                       1.000000  1.000000  1.000000  1.000000  0.000000  0.000000
                       0.000000  0.000000  0.000000  0.000000  0.000000  0.000000
                       0.000000  0.000000  0.000000  0.000000  0.000000
                       1.000000  1.000000  1.000000  1.000000  1.000000  1.000000
                       1.000000  1.000000  1.000000  1.000000  1.000000  1.000000
                       1.000000  1.000000  1.000000  1.000000  1.000000  1.000000
                       1.000000  1.000000  1.000000  1.000000  1.000000  1.000000
                       1.000000  1.000000  1.000000  1.000000  1.000000  1.000000
                       1.000000  1.000000  1.000000  1.000000  1.000000  1.000000
                       1.000000  1.000000  1.000000  1.000000  1.000000  1.000000
                       1.000000  1.000000  1.000000  1.000000  1.000000  1.000000
                       1.000000  1.000000  1.000000  1.000000  0.000000  0.000000
                       0.000000  0.000000  0.000000  0.000000  0.000000  0.000000
                       0.000000  0.000000  0.000000  0.000000  0.000000
                       1.000000  1.000000  1.000000  1.000000  1.000000  1.000000
                       1.000000  1.000000  1.000000  1.000000  1.000000  1.000000
                       1.000000  1.000000  1.000000  1.000000  1.000000  1.000000
                       1.000000  1.000000  1.000000  1.000000  1.000000  1.000000
                       1.000000  1.000000  1.000000  1.000000  1.000000  1.000000
                       1.000000  1.000000  1.000000  1.000000  1.000000  1.000000
                       1.000000  1.000000  1.000000  1.000000  1.000000  1.000000
                       1.000000  1.000000  1.000000  1.000000  1.000000  1.000000
                       0.000000  0.000000  0.000000  0.000000  0.000000  0.000000
                       0.000000  0.000000  0.000000  0.000000  0.000000  0.000000
                       0.000000  0.000000  0.000000  0.000000  0.000000
                       1.000000  1.000000  1.000000  1.000000  1.000000  1.000000
                       1.000000  1.000000  1.000000  1.000000  1.000000  1.000000
                       1.000000  1.000000  1.000000  1.000000  1.000000  1.000000
                       1.000000  1.000000  1.000000  1.000000  1.000000  1.000000
                       1.000000  1.000000  1.000000  1.000000  1.000000  1.000000
                       1.000000  1.000000  1.000000  1.000000  1.000000  1.000000
                       1.000000  1.000000  1.000000  1.000000  1.000000  1.000000
                       1.000000  1.000000  1.000000  1.000000  1.000000  1.000000
                       0.000000  0.000000  0.000000  0.000000  0.000000  0.000000
                       0.000000  0.000000  0.000000  0.000000  0.000000  0.000000
                       0.000000  0.000000  0.000000  0.000000  0.000000
                       1.000000  1.000000  1.000000  1.000000  1.000000  1.000000
                       1.000000  1.000000  1.000000  1.000000  1.000000  1.000000
                       1.000000  1.000000  1.000000  1.000000  1.000000  1.000000
                       1.000000  1.000000  1.000000  1.000000  1.000000  1.000000
                       1.000000  1.000000  1.000000  1.000000  1.000000  1.000000
                       1.000000  1.000000  1.000000  1.000000  1.000000  1.000000
                       1.000000  1.000000  1.000000  1.000000  1.000000  1.000000
                       1.000000  1.000000  1.000000  1.000000  1.000000  1.000000
                       0.000000  0.000000  0.000000  0.000000  0.000000  0.000000
                       0.000000  0.000000  0.000000  0.000000  0.000000  0.000000
                       0.000000  0.000000  0.000000  0.000000  0.000000
                       1.000000  1.000000  1.000000  1.000000  1.000000  1.000000
                       1.000000  1.000000  1.000000  1.000000  1.000000  1.000000
                       1.000000  1.000000  1.000000  1.000000  1.000000  1.000000
                       1.000000  1.000000  1.000000  1.000000  1.000000  1.000000
                       1.000000  1.000000  1.000000  1.000000  1.000000  1.000000
                       1.000000  1.000000  1.000000  1.000000  1.000000  1.000000
                       1.000000  1.000000  1.000000  1.000000  1.000000  1.000000
                       1.000000  1.000000  1.000000  1.000000  1.000000  1.000000
                       0.000000  0.000000  0.000000  0.000000  0.000000  0.000000
                       0.000000  0.000000  0.000000  0.000000  0.000000  0.000000
                       0.000000  0.000000  0.000000  0.000000  0.000000
           occopt           3
           ortalg          -2
        paral_kgb           1
           prtden           0
           prteig           0
          prtkden           1
            prtwf           0
            rprim      0.0000000000E+00  1.0137047334E+01  0.0000000000E+00
                       9.6126033568E+00  0.0000000000E+00  0.0000000000E+00
                       0.0000000000E+00 -5.7455806104E+00 -9.8776109362E+00
           shiftk      5.00000000E-01  5.00000000E-01  5.00000000E-01
          spgroup           1
           spinat      0.0000000000E+00  0.0000000000E+00  1.0000000000E+00
                       0.0000000000E+00  0.0000000000E+00  1.0000000000E+00
                       0.0000000000E+00  0.0000000000E+00  1.0000000000E+00
                       0.0000000000E+00  0.0000000000E+00  1.0000000000E+00
                       0.0000000000E+00  0.0000000000E+00  1.0000000000E+00
                       0.0000000000E+00  0.0000000000E+00  1.0000000000E+00
                       0.0000000000E+00  0.0000000000E+00  1.0000000000E+00
                       0.0000000000E+00  0.0000000000E+00  1.0000000000E+00
                       0.0000000000E+00  0.0000000000E+00  1.0000000000E+00
                       0.0000000000E+00  0.0000000000E+00  1.0000000000E+00
                       0.0000000000E+00  0.0000000000E+00  1.0000000000E+00
                       0.0000000000E+00  0.0000000000E+00  1.0000000000E+00
                       0.0000000000E+00  0.0000000000E+00  1.0000000000E+00
                       0.0000000000E+00  0.0000000000E+00  1.0000000000E+00
           strten      1.2282589936E-02  1.2725997071E-02  1.2178320598E-02
                      -6.2141499371E-05  7.4239772077E-08 -5.0713289438E-08
           toldfe      1.00000000E-06 Hartree
           tsmear      1.00000000E-03 Hartree
            typat      1  1  2  2  2  2  3  3  3  3  3  3  3  3
          usekden           1
         wfoptalg         114
              wtk        0.25000    0.25000    0.25000    0.25000
           xangst      2.6196868650E+00 -1.5658216092E+00 -2.6919083901E+00
                       0.0000000000E+00  0.0000000000E+00  0.0000000000E+00
                       3.2509632876E+00  1.2267492226E+00 -2.2118280640E+00
                       6.3127642260E-01  2.7326524121E+00 -4.8008032611E-01
                       1.9884104424E+00  1.1668308028E+00 -3.1719887162E+00
                       4.6080973074E+00 -3.3907238659E-01 -4.9037364541E+00
                       1.5327997422E+00  2.3016083960E+00 -3.6532319468E+00
                       4.1524866072E+00 -1.4738499797E+00 -4.4224932236E+00
                       3.7065739878E+00  9.1971629504E-02 -1.7305848335E+00
                       1.0868871228E+00  3.8674300052E+00 -9.6132355665E-01
                       3.7496940336E+00  2.4025084969E+00 -1.9719790265E+00
                       1.1300071686E+00  1.5568931377E+00 -7.1992936367E-01
                       1.4896796964E+00 -8.9284714847E-03 -3.4118377538E+00
                       4.1093665614E+00  8.3668688773E-01 -4.6638874166E+00
            xcart      4.9504907287E+00 -2.9589740144E+00 -5.0869696322E+00
                       0.0000000000E+00  0.0000000000E+00  0.0000000000E+00
                       6.1434302816E+00  2.3182200645E+00 -4.1797492940E+00
                       1.1929395529E+00  5.1639646751E+00 -9.0722033814E-01
                       3.7575511759E+00  2.2049906608E+00 -5.9941899703E+00
                       8.7080419046E+00 -6.4075394989E-01 -9.2667189262E+00
                       2.8965717293E+00  4.3494095335E+00 -6.9036078793E+00
                       7.8470624580E+00 -2.7851728226E+00 -8.3573010172E+00
                       7.0044097282E+00  1.7380119176E-01 -3.2703313850E+00
                       2.0539189994E+00  7.3083835479E+00 -1.8166382472E+00
                       7.0858948055E+00  4.5400830912E+00 -3.7265002998E+00
                       2.1354040768E+00  2.9421016485E+00 -1.3604693324E+00
                       2.8150866519E+00 -1.6872365891E-02 -6.4474389645E+00
                       7.7655773806E+00  1.5811090768E+00 -8.8134699320E+00
             xred     -3.0692094551E-18  5.0000000000E-01  5.0000000000E-01
                       0.0000000000E+00  0.0000000000E+00  0.0000000000E+00
                       4.5488100000E-01  6.2048700000E-01  4.1082900000E-01
                       5.4511900000E-01  1.2048700000E-01  8.9171000000E-02
                       5.4511900000E-01  3.7951300000E-01  5.8917100000E-01
                       4.5488100000E-01  8.7951300000E-01  9.1082900000E-01
                       8.0116400000E-01  2.9255400000E-01  6.7855800000E-01
                       1.9883600000E-01  7.9255400000E-01  8.2144200000E-01
                       1.9883600000E-01  7.0744600000E-01  3.2144200000E-01
                       8.0116400000E-01  2.0744600000E-01  1.7855800000E-01
                       6.4242900000E-01  7.1567600000E-01  3.6627900000E-01
                       3.5757100000E-01  2.1567600000E-01  1.3372100000E-01
                       3.5757100000E-01  2.8432400000E-01  6.3372100000E-01
                       6.4242900000E-01  7.8432400000E-01  8.6627900000E-01
            znucl       28.00000    6.00000    8.00000

================================================================================


- Timing analysis has been suppressed with timopt=0



================================================================================

 Suggested references for the acknowledgment of ABINIT usage.

 The users of ABINIT have little formal obligations with respect to the ABINIT group
 (those specified in the GNU General Public License, http://www.gnu.org/copyleft/gpl.txt).
 However, it is common practice in the scientific literature,
 to acknowledge the efforts of people that have made the research possible.
 In this spirit, please find below suggested citations of work written by ABINIT developers,
 corresponding to implementations inside of ABINIT that you have used in the present run.
 Note also that it will be of great value to readers of publications presenting these results,
 to read papers enabling them to understand the theoretical formalism and details
 of the ABINIT implementation.
 For information on why they are suggested, see also https://docs.abinit.org/theory/acknowledgments.
-
- [1] Libxc: A library of exchange and correlation functionals for density functional theory.
- M.A.L. Marques, M.J.T. Oliveira, T. Burnus, Computer Physics Communications 183, 2227 (2012).
- Comment: to be cited when LibXC is used (negative value of ixc)
- Strong suggestion to cite this paper.
- DOI and bibtex: see https://docs.abinit.org/theory/bibliography/#marques2012
-
- [2] Large scale ab initio calculations based on three levels of parallelization
- F. Bottin, S. Leroux, A. Knyazev, G. Zerah, Comput. Mat. Science 42, 329, (2008).
- Comment: in case LOBPCG algorithm is used (wfoptalg=4/14/114).
- Strong suggestion to cite this paper in your publications.
- This paper is also available at http://www.arxiv.org/abs/0707.3405
- DOI and bibtex: see https://docs.abinit.org/theory/bibliography/#bottin2008
-
- [3] The Abinit project: Impact, environment and recent developments.
- Computer Phys. Comm. 248, 107042 (2020).
- X.Gonze, B. Amadon, G. Antonius, F.Arnardi, L.Baguet, J.-M.Beuken,
- J.Bieder, F.Bottin, J.Bouchet, E.Bousquet, N.Brouwer, F.Bruneval,
- G.Brunin, T.Cavignac, J.-B. Charraud, Wei Chen, M.Cote, S.Cottenier,
- J.Denier, G.Geneste, Ph.Ghosez, M.Giantomassi, Y.Gillet, O.Gingras,
- D.R.Hamann, G.Hautier, Xu He, N.Helbig, N.Holzwarth, Y.Jia, F.Jollet,
- W.Lafargue-Dit-Hauret, K.Lejaeghere, M.A.L.Marques, A.Martin, C.Martins,
- H.P.C. Miranda, F.Naccarato, K. Persson, G.Petretto, V.Planes, Y.Pouillon,
- S.Prokhorenko, F.Ricci, G.-M.Rignanese, A.H.Romero, M.M.Schmitt, M.Torrent,
- M.J.van Setten, B.Van Troeye, M.J.Verstraete, G.Zerah and J.W.Zwanzig
- Comment: the fifth generic paper describing the ABINIT project.
- Note that a version of this paper, that is not formatted for Computer Phys. Comm. 
- is available at https://www.abinit.org/sites/default/files/ABINIT20.pdf .
- The licence allows the authors to put it on the Web.
- DOI and bibtex: see https://docs.abinit.org/theory/bibliography/#gonze2020
-
- [4] Optimized norm-conserving Vanderbilt pseudopotentials.
- D.R. Hamann, Phys. Rev. B 88, 085117 (2013).
- Comment: Some pseudopotential generated using the ONCVPSP code were used.
- DOI and bibtex: see https://docs.abinit.org/theory/bibliography/#hamann2013
-
- [5] ABINIT: Overview, and focus on selected capabilities
- J. Chem. Phys. 152, 124102 (2020).
- A. Romero, D.C. Allan, B. Amadon, G. Antonius, T. Applencourt, L.Baguet,
- J.Bieder, F.Bottin, J.Bouchet, E.Bousquet, F.Bruneval,
- G.Brunin, D.Caliste, M.Cote,
- J.Denier, C. Dreyer, Ph.Ghosez, M.Giantomassi, Y.Gillet, O.Gingras,
- D.R.Hamann, G.Hautier, F.Jollet, G. Jomard,
- A.Martin, 
- H.P.C. Miranda, F.Naccarato, G.Petretto, N.A. Pike, V.Planes,
- S.Prokhorenko, T. Rangel, F.Ricci, G.-M.Rignanese, M.Royo, M.Stengel, M.Torrent,
- M.J.van Setten, B.Van Troeye, M.J.Verstraete, J.Wiktor, J.W.Zwanziger, and X.Gonze.
- Comment: a global overview of ABINIT, with focus on selected capabilities .
- Note that a version of this paper, that is not formatted for J. Chem. Phys 
- is available at https://www.abinit.org/sites/default/files/ABINIT20_JPC.pdf .
- The licence allows the authors to put it on the Web.
- DOI and bibtex: see https://docs.abinit.org/theory/bibliography/#romero2020
-
- [6] Recent developments in the ABINIT software package.
- Computer Phys. Comm. 205, 106 (2016).
- X.Gonze, F.Jollet, F.Abreu Araujo, D.Adams, B.Amadon, T.Applencourt,
- C.Audouze, J.-M.Beuken, J.Bieder, A.Bokhanchuk, E.Bousquet, F.Bruneval
- D.Caliste, M.Cote, F.Dahm, F.Da Pieve, M.Delaveau, M.Di Gennaro,
- B.Dorado, C.Espejo, G.Geneste, L.Genovese, A.Gerossier, M.Giantomassi,
- Y.Gillet, D.R.Hamann, L.He, G.Jomard, J.Laflamme Janssen, S.Le Roux,
- A.Levitt, A.Lherbier, F.Liu, I.Lukacevic, A.Martin, C.Martins,
- M.J.T.Oliveira, S.Ponce, Y.Pouillon, T.Rangel, G.-M.Rignanese,
- A.H.Romero, B.Rousseau, O.Rubel, A.A.Shukri, M.Stankovski, M.Torrent,
- M.J.Van Setten, B.Van Troeye, M.J.Verstraete, D.Waroquier, J.Wiktor,
- B.Xu, A.Zhou, J.W.Zwanziger.
- Comment: the fourth generic paper describing the ABINIT project.
- Note that a version of this paper, that is not formatted for Computer Phys. Comm. 
- is available at https://www.abinit.org/sites/default/files/ABINIT16.pdf .
- The licence allows the authors to put it on the Web.
- DOI and bibtex: see https://docs.abinit.org/theory/bibliography/#gonze2016
-
- Proc.   0 individual time (sec): cpu=       4608.9  wall=       4621.3

================================================================================

 Calculation completed.
.Delivered   0 WARNINGs and   0 COMMENTs to log file.
+Overall time at end (sec) : cpu=      73758.3  wall=      73939.9
