---------------------------------------
Begin Slurm Prolog: Jan-06-2023 17:24:54
Job ID:    415112
User ID:   bzhang376
Account:   gts-phanish6-coda20
Job name:  Abi103
Partition: cpu-small
QOS:       inferno
---------------------------------------
  ABINIT 9.6.2
  
 DeprecationWarning: 

     The files file has been deprecated in Abinit9 and will be removed in Abinit10.
     Use the syntax `abinit t01.abi` where t01.abi is an input with pseudopotentials e.g.

            pseudos = "al.psp8, as.psp8"


  Give name for formatted input file: 
NiC2O4.in
  Give name for formatted output file:
NiC2O4.out
  Give root name for generic input files:
abi
  Give root name for generic output files:
abo
  Give root name for generic temporary files:
tmp

.Version 9.6.2 of ABINIT 
.(MPI version, prepared for a x86_64_linux_gnu10.3 computer) 

.Copyright (C) 1998-2021 ABINIT group . 
 ABINIT comes with ABSOLUTELY NO WARRANTY.
 It is free software, and you are welcome to redistribute it
 under certain conditions (GNU General Public License,
 see ~abinit/COPYING or http://www.gnu.org/copyleft/gpl.txt).

 ABINIT is a project of the Universite Catholique de Louvain,
 Corning Inc. and other collaborators, see ~abinit/doc/developers/contributors.txt .
 Please read https://docs.abinit.org/theory/acknowledgments for suggested
 acknowledgments of the ABINIT effort.
 For more information, see https://www.abinit.org .

.Starting date : Fri  6 Jan 2023.
- ( at 17h24 )
  

 ++++++++++++++++++++++++++++++++++++++++++++++++++++++++++++++++++++++++++++++

 === Build Information === 
  Version       : 9.6.2
  Build target  : x86_64_linux_gnu10.3
  Build date    : 20221111

 === Compiler Suite === 
  C compiler       : gnu10.3
  C++ compiler     : gnu10.3
  Fortran compiler : gnu10.3
  CFLAGS           : -g -O2 -mtune=native -march=native
  CXXFLAGS         : -g -O2 -mtune=native -march=native
  FCFLAGS          : -g -ffree-line-length-none -fallow-argument-mismatch     -I/usr/loc ...
  FC_LDFLAGS       : 

 === Optimizations === 
  Debug level        : basic
  Optimization level : standard
  Architecture       : intel_xeon

 === Multicore === 
  Parallel build : yes
  Parallel I/O   : 
  openMP support : no
  GPU support    : 

 === Connectors / Fallbacks === 
  LINALG flavor  : openblas
  FFT flavor     : fftw3
  HDF5           : yes
  NetCDF         : yes
  NetCDF Fortran : yes
  LibXC          : yes
  Wannier90      : no

 === Experimental features === 
  Exports             : 
  GW double-precision : 

 ++++++++++++++++++++++++++++++++++++++++++++++++++++++++++++++++++++++++++++++


 ++++++++++++++++++++++++++++++++++++++++++++++++++++++++++++++++++++++++++++++
 Default optimizations:
   -O2 -mtune=native -march=native


 Optimizations for 43_ptgroups:
   -O0


 ++++++++++++++++++++++++++++++++++++++++++++++++++++++++++++++++++++++++++++++


 ++++++++++++++++++++++++++++++++++++++++++++++++++++++++++++++++++++++++++++++
 CPP options activated during the build:

                    CC_GNU                   CXX_GNU                    FC_GNU
 
              HAVE_ATOMPAW HAVE_FC_ALLOCATABLE_DT...             HAVE_FC_ASYNC
 
         HAVE_FC_BACKTRACE  HAVE_FC_COMMAND_ARGUMENT      HAVE_FC_COMMAND_LINE
 
        HAVE_FC_CONTIGUOUS           HAVE_FC_CPUTIME              HAVE_FC_EXIT
 
             HAVE_FC_FLUSH             HAVE_FC_GAMMA            HAVE_FC_GETENV
 
   HAVE_FC_IEEE_ARITHMETIC   HAVE_FC_IEEE_EXCEPTIONS          HAVE_FC_INT_QUAD
 
             HAVE_FC_IOMSG     HAVE_FC_ISO_C_BINDING  HAVE_FC_ISO_FORTRAN_2008
 
        HAVE_FC_LONG_LINES        HAVE_FC_MOVE_ALLOC  HAVE_FC_ON_THE_FLY_SHAPE
 
           HAVE_FC_PRIVATE         HAVE_FC_PROTECTED           HAVE_FC_SHIFTLR
 
         HAVE_FC_STREAM_IO            HAVE_FC_SYSTEM                HAVE_FFTW3
 
          HAVE_FORTRAN2003                 HAVE_HDF5        HAVE_LIBPAW_ABINIT
 
      HAVE_LIBTETRA_ABINIT                HAVE_LIBXC         HAVE_LINALG_AXPBY
 
        HAVE_LINALG_GEMM3M                  HAVE_MPI                 HAVE_MPI2
 
       HAVE_MPI_IALLGATHER       HAVE_MPI_IALLREDUCE        HAVE_MPI_IALLTOALL
 
       HAVE_MPI_IALLTOALLV           HAVE_MPI_IBCAST         HAVE_MPI_IGATHERV
 
        HAVE_MPI_INTEGER16               HAVE_MPI_IO HAVE_MPI_TYPE_CREATE_S...
 
               HAVE_NETCDF       HAVE_NETCDF_FORTRAN             HAVE_OS_LINUX
 
         HAVE_TIMER_ABINIT                                                      
 ++++++++++++++++++++++++++++++++++++++++++++++++++++++++++++++++++++++++++++++

- input  file    -> NiC2O4.in
- output file    -> NiC2O4.out
- root for input  files -> abi
- root for output files -> abo

-instrng: 90 lines of input have been read from file NiC2O4.in


 Please give name of formatted atomic psp file (and finish with a newline character)
 For atom type 1, psp file is ../Ni.pot

 Please give name of formatted atomic psp file (and finish with a newline character)
 For atom type 2, psp file is ../C.pot

 Please give name of formatted atomic psp file (and finish with a newline character)
 For atom type 3, psp file is ../O.pot
  read the values zionpsp= 18.0 , pspcod=   8 , lmax=   2
  read the values zionpsp=  4.0 , pspcod=   8 , lmax=   1
  read the values zionpsp=  6.0 , pspcod=   8 , lmax=   1

 inpspheads: deduce mpsang = 3, n1xccc = 0.

======================================================= 
 invars1m : enter jdtset= 0

 symlatt: the Bravais lattice is mP (primitive monoclinic)
  xred   is defined in input file
 ingeo: takes atomic coordinates from input array xred

 symlatt: the Bravais lattice is mP (primitive monoclinic)

 symlatt: the Bravais lattice is mP (primitive monoclinic)

--- !COMMENT
src_file: m_symfind.F90
src_line: 1020
message: |
    The Bravais lattice determined only from the primitive
    vectors, bravais(1)=  2, is more symmetric
    than the real one, iholohedry=  1, obtained by taking into
    account the atomic positions. Start deforming the primitive vector set.
...


 symlatt: the Bravais lattice is aP (primitive triclinic)
 symspgr: spgroup=   1  P1   (=C1^1)
 initocc_chkneu: initialized the occupation numbers for occopt= 3
    spin up   values:
 getmpw sequential formula gave: 198573

 ====================================================================================================
 Searching for all possible proc distributions for this input with #CPUs<=16:

 ~~~~~~~~~~~~~~~~~~~~~~~~~~~~~~~~~~~~~~~~~~~~~~~~~~~~~~~~~~~~~~~~~~~~~~~~~~~~~
 |       np_spkpt|       npfft|      npband|      bandpp|  #MPI(proc)|    WEIGHT|
 |    1<<    8|    1<<   16|    1<<   16|    1<<   65|    1<<   16|  <=    16|
 ~~~~~~~~~~~~~~~~~~~~~~~~~~~~~~~~~~~~~~~~~~~~~~~~~~~~~~~~~~~~~~~~~~~~~~~~~~~~~
 |           8|           2|           1|           1|          16|    13.009|
 |           1|           3|           5|           1|          15|     9.701|
 |           4|           4|           1|           1|          16|     9.518|
 |           5|           3|           1|           1|          15|     8.375|
 |           8|           1|           1|           1|           8|     7.767|
 |           3|           1|           5|           1|          15|     7.713|
 |           7|           2|           1|           1|          14|     7.531|
 |           4|           3|           1|           1|          12|     7.444|
 |           3|           5|           1|           1|          15|     7.214|
 |           6|           2|           1|           1|          12|     7.100|
 ~~~~~~~~~~~~~~~~~~~~~~~~~~~~~~~~~~~~~~~~~~~~~~~~~~~~~~~~~~~~~~~~~~~~~~~~~~~~~
 Only the best possible choices for nproc are printed...

 >>> Possible (best) choices for the number of bands (nband) are:
     with: np_spkpt=8 npfft=2
     nband=    64 using     16 CPUs =    16 MPI x  1 threads (npband=    1)
     nband=    66 using     16 CPUs =    16 MPI x  1 threads (npband=    1)
     nband=    65 using     16 CPUs =    16 MPI x  1 threads (npband=    1)
 >>> The present nband value (    65) seems to be the best choice!
 ====================================================================================================


 For input ecut=  2.500000E+02 best grid ngfft=     150     144     180
       max ecut=  2.546329E+02

 ==== FFT mesh ====
  FFT mesh divisions ........................   150  144  180
  Augmented FFT divisions ...................   151  145  180
  FFT algorithm .............................   312
  FFT cache size ............................    16
 Relative gap for number of plane waves between process (%):  0.02
 Relative gap for number of plane waves between process (%):  0.10
 Relative gap for number of plane waves between process (%):  0.02
 Relative gap for number of plane waves between process (%):  0.10
 getmpw: optimal value of mpw= 99350

 Symmetries : space group P1 (#  1); Bravais aP (primitive triclinic)

 getdim_nloc : deduce lmnmax  =  18, lnmax  =   6,
                      lmnmaxso=  18, lnmaxso=   6.
memory: analysis of memory needs
================================================================================
 Values of the parameters that define the memory need of the present run
     intxc =       0    ionmov =       0      iscf =       7    lmnmax =       6
     lnmax =       6     mgfft =     180  mpssoang =       3    mqgrid =    7242
     natom =      14  nloc_mem =       1    nspden =       2   nspinor =       1
    nsppol =       2      nsym =       1    n1xccc =       0    ntypat =       3
    occopt =       3   xclevel =       2
-    mband =          65        mffmem =           1         mkmem =           1
       mpw =       99350          nfft =     1944000          nkpt =           4
================================================================================
P This job should need less than                    1285.382 Mbytes of memory.
  Rough estimation (10% accuracy) of disk space for files :
_ WF disk file :   1576.601 Mbytes ; DEN or POT disk file :     29.665 Mbytes.
================================================================================

 Biggest array : f_fftgr(disk), with    474.6114 MBytes.
 memana : allocated an array of    474.611 Mbytes, for testing purposes.
 memana: allocated    1285.382Mbytes, for testing purposes. 
 The job will continue.
--------------------------------------------------------------------------------
------------- Echo of variables that govern the present computation ------------
--------------------------------------------------------------------------------
-
- outvars: echo of selected default values                                      
-   iomode0 =  0 , fftalg0 =312 , wfoptalg0 =  0
-
- outvars: echo of global parameters not present in the input file              
-  max_nthreads =    0
-
 -outvars: echo values of preprocessed input variables --------
 
 These variables are accessible in NetCDF format (abo_OUT.nc)

-          iomode           1
            acell      1.0300000000E+00  1.0300000000E+00  1.0300000000E+00 Bohr
              amu      5.86900000E+01  1.20110000E+01  1.59994000E+01
        autoparal           1
     densfor_pred           6
           diemac      1.00000000E+00
           diemix      4.00000000E-01
             ecut      2.50000000E+02 Hartree
           ecutsm      5.00000000E-01 Hartree
-          fftalg         312
              ixc     -263267
              kpt      2.50000000E-01  2.50000000E-01  2.50000000E-01
                      -2.50000000E-01  2.50000000E-01  2.50000000E-01
                       2.50000000E-01 -2.50000000E-01  2.50000000E-01
                      -2.50000000E-01 -2.50000000E-01  2.50000000E-01
         kptrlatt        2    0    0      0    2    0      0    0    2
          kptrlen      1.98019629E+01
P           mkmem           1
            natom          14
            nband          65
            ngfft         150     144     180
             nkpt           4
-           npfft           2
-        np_spkpt           8
           nspden           2
           nsppol           2
            nstep          60
             nsym           1
           ntypat           3
              occ      1.000000  1.000000  1.000000  1.000000  1.000000  1.000000
                       1.000000  1.000000  1.000000  1.000000  1.000000  1.000000
                       1.000000  1.000000  1.000000  1.000000  1.000000  1.000000
                       1.000000  1.000000  1.000000  1.000000  1.000000  1.000000
                       1.000000  1.000000  1.000000  1.000000  1.000000  1.000000
                       1.000000  1.000000  1.000000  1.000000  1.000000  1.000000
                       1.000000  1.000000  1.000000  1.000000  1.000000  1.000000
                       1.000000  1.000000  1.000000  1.000000  1.000000  1.000000
                       1.000000  1.000000  0.000000  0.000000  0.000000  0.000000
                       0.000000  0.000000  0.000000  0.000000  0.000000  0.000000
                       0.000000  0.000000  0.000000  0.000000  0.000000
                       1.000000  1.000000  1.000000  1.000000  1.000000  1.000000
                       1.000000  1.000000  1.000000  1.000000  1.000000  1.000000
                       1.000000  1.000000  1.000000  1.000000  1.000000  1.000000
                       1.000000  1.000000  1.000000  1.000000  1.000000  1.000000
                       1.000000  1.000000  1.000000  1.000000  1.000000  1.000000
                       1.000000  1.000000  1.000000  1.000000  1.000000  1.000000
                       1.000000  1.000000  1.000000  1.000000  1.000000  1.000000
                       1.000000  1.000000  1.000000  1.000000  1.000000  1.000000
                       1.000000  1.000000  0.000000  0.000000  0.000000  0.000000
                       0.000000  0.000000  0.000000  0.000000  0.000000  0.000000
                       0.000000  0.000000  0.000000  0.000000  0.000000
                       1.000000  1.000000  1.000000  1.000000  1.000000  1.000000
                       1.000000  1.000000  1.000000  1.000000  1.000000  1.000000
                       1.000000  1.000000  1.000000  1.000000  1.000000  1.000000
                       1.000000  1.000000  1.000000  1.000000  1.000000  1.000000
                       1.000000  1.000000  1.000000  1.000000  1.000000  1.000000
                       1.000000  1.000000  1.000000  1.000000  1.000000  1.000000
                       1.000000  1.000000  1.000000  1.000000  1.000000  1.000000
                       1.000000  1.000000  1.000000  1.000000  1.000000  1.000000
                       1.000000  1.000000  0.000000  0.000000  0.000000  0.000000
                       0.000000  0.000000  0.000000  0.000000  0.000000  0.000000
                       0.000000  0.000000  0.000000  0.000000  0.000000
                       1.000000  1.000000  1.000000  1.000000  1.000000  1.000000
                       1.000000  1.000000  1.000000  1.000000  1.000000  1.000000
                       1.000000  1.000000  1.000000  1.000000  1.000000  1.000000
                       1.000000  1.000000  1.000000  1.000000  1.000000  1.000000
                       1.000000  1.000000  1.000000  1.000000  1.000000  1.000000
                       1.000000  1.000000  1.000000  1.000000  1.000000  1.000000
                       1.000000  1.000000  1.000000  1.000000  1.000000  1.000000
                       1.000000  1.000000  1.000000  1.000000  1.000000  1.000000
                       1.000000  1.000000  0.000000  0.000000  0.000000  0.000000
                       0.000000  0.000000  0.000000  0.000000  0.000000  0.000000
                       0.000000  0.000000  0.000000  0.000000  0.000000
                       1.000000  1.000000  1.000000  1.000000  1.000000  1.000000
                       1.000000  1.000000  1.000000  1.000000  1.000000  1.000000
                       1.000000  1.000000  1.000000  1.000000  1.000000  1.000000
                       1.000000  1.000000  1.000000  1.000000  1.000000  1.000000
                       1.000000  1.000000  1.000000  1.000000  1.000000  1.000000
                       1.000000  1.000000  1.000000  1.000000  1.000000  1.000000
                       1.000000  1.000000  1.000000  1.000000  1.000000  1.000000
                       1.000000  1.000000  1.000000  1.000000  1.000000  1.000000
                       1.000000  1.000000  0.000000  0.000000  0.000000  0.000000
                       0.000000  0.000000  0.000000  0.000000  0.000000  0.000000
                       0.000000  0.000000  0.000000  0.000000  0.000000
                       1.000000  1.000000  1.000000  1.000000  1.000000  1.000000
                       1.000000  1.000000  1.000000  1.000000  1.000000  1.000000
                       1.000000  1.000000  1.000000  1.000000  1.000000  1.000000
                       1.000000  1.000000  1.000000  1.000000  1.000000  1.000000
                       1.000000  1.000000  1.000000  1.000000  1.000000  1.000000
                       1.000000  1.000000  1.000000  1.000000  1.000000  1.000000
                       1.000000  1.000000  1.000000  1.000000  1.000000  1.000000
                       1.000000  1.000000  1.000000  1.000000  1.000000  1.000000
                       1.000000  1.000000  0.000000  0.000000  0.000000  0.000000
                       0.000000  0.000000  0.000000  0.000000  0.000000  0.000000
                       0.000000  0.000000  0.000000  0.000000  0.000000
                       1.000000  1.000000  1.000000  1.000000  1.000000  1.000000
                       1.000000  1.000000  1.000000  1.000000  1.000000  1.000000
                       1.000000  1.000000  1.000000  1.000000  1.000000  1.000000
                       1.000000  1.000000  1.000000  1.000000  1.000000  1.000000
                       1.000000  1.000000  1.000000  1.000000  1.000000  1.000000
                       1.000000  1.000000  1.000000  1.000000  1.000000  1.000000
                       1.000000  1.000000  1.000000  1.000000  1.000000  1.000000
                       1.000000  1.000000  1.000000  1.000000  1.000000  1.000000
                       1.000000  1.000000  0.000000  0.000000  0.000000  0.000000
                       0.000000  0.000000  0.000000  0.000000  0.000000  0.000000
                       0.000000  0.000000  0.000000  0.000000  0.000000
                       1.000000  1.000000  1.000000  1.000000  1.000000  1.000000
                       1.000000  1.000000  1.000000  1.000000  1.000000  1.000000
                       1.000000  1.000000  1.000000  1.000000  1.000000  1.000000
                       1.000000  1.000000  1.000000  1.000000  1.000000  1.000000
                       1.000000  1.000000  1.000000  1.000000  1.000000  1.000000
                       1.000000  1.000000  1.000000  1.000000  1.000000  1.000000
                       1.000000  1.000000  1.000000  1.000000  1.000000  1.000000
                       1.000000  1.000000  1.000000  1.000000  1.000000  1.000000
                       1.000000  1.000000  0.000000  0.000000  0.000000  0.000000
                       0.000000  0.000000  0.000000  0.000000  0.000000  0.000000
                       0.000000  0.000000  0.000000  0.000000  0.000000
           occopt           3
           ortalg          -2
        paral_kgb           1
           prtden           0
           prteig           0
          prtkden           1
            prtwf           0
            rprim      0.0000000000E+00  1.0137047334E+01  0.0000000000E+00
                       9.6126033568E+00  0.0000000000E+00  0.0000000000E+00
                       0.0000000000E+00 -5.7455806104E+00 -9.8776109362E+00
           shiftk      5.00000000E-01  5.00000000E-01  5.00000000E-01
          spgroup           1
           spinat      0.0000000000E+00  0.0000000000E+00  1.0000000000E+00
                       0.0000000000E+00  0.0000000000E+00  1.0000000000E+00
                       0.0000000000E+00  0.0000000000E+00  1.0000000000E+00
                       0.0000000000E+00  0.0000000000E+00  1.0000000000E+00
                       0.0000000000E+00  0.0000000000E+00  1.0000000000E+00
                       0.0000000000E+00  0.0000000000E+00  1.0000000000E+00
                       0.0000000000E+00  0.0000000000E+00  1.0000000000E+00
                       0.0000000000E+00  0.0000000000E+00  1.0000000000E+00
                       0.0000000000E+00  0.0000000000E+00  1.0000000000E+00
                       0.0000000000E+00  0.0000000000E+00  1.0000000000E+00
                       0.0000000000E+00  0.0000000000E+00  1.0000000000E+00
                       0.0000000000E+00  0.0000000000E+00  1.0000000000E+00
                       0.0000000000E+00  0.0000000000E+00  1.0000000000E+00
                       0.0000000000E+00  0.0000000000E+00  1.0000000000E+00
           toldfe      1.00000000E-06 Hartree
           tsmear      1.00000000E-03 Hartree
            typat      1  1  2  2  2  2  3  3  3  3  3  3  3  3
          usekden           1
         wfoptalg         114
              wtk        0.25000    0.25000    0.25000    0.25000
           xangst      2.6196868650E+00 -1.5658216092E+00 -2.6919083901E+00
                       0.0000000000E+00  0.0000000000E+00  0.0000000000E+00
                       3.2509632876E+00  1.2267492226E+00 -2.2118280640E+00
                       6.3127642260E-01  2.7326524121E+00 -4.8008032611E-01
                       1.9884104424E+00  1.1668308028E+00 -3.1719887162E+00
                       4.6080973074E+00 -3.3907238659E-01 -4.9037364541E+00
                       1.5327997422E+00  2.3016083960E+00 -3.6532319468E+00
                       4.1524866072E+00 -1.4738499797E+00 -4.4224932236E+00
                       3.7065739878E+00  9.1971629504E-02 -1.7305848335E+00
                       1.0868871228E+00  3.8674300052E+00 -9.6132355665E-01
                       3.7496940336E+00  2.4025084969E+00 -1.9719790265E+00
                       1.1300071686E+00  1.5568931377E+00 -7.1992936367E-01
                       1.4896796964E+00 -8.9284714847E-03 -3.4118377538E+00
                       4.1093665614E+00  8.3668688773E-01 -4.6638874166E+00
            xcart      4.9504907287E+00 -2.9589740144E+00 -5.0869696322E+00
                       0.0000000000E+00  0.0000000000E+00  0.0000000000E+00
                       6.1434302816E+00  2.3182200645E+00 -4.1797492940E+00
                       1.1929395529E+00  5.1639646751E+00 -9.0722033814E-01
                       3.7575511759E+00  2.2049906608E+00 -5.9941899703E+00
                       8.7080419046E+00 -6.4075394989E-01 -9.2667189262E+00
                       2.8965717293E+00  4.3494095335E+00 -6.9036078793E+00
                       7.8470624580E+00 -2.7851728226E+00 -8.3573010172E+00
                       7.0044097282E+00  1.7380119176E-01 -3.2703313850E+00
                       2.0539189994E+00  7.3083835479E+00 -1.8166382472E+00
                       7.0858948055E+00  4.5400830912E+00 -3.7265002998E+00
                       2.1354040768E+00  2.9421016485E+00 -1.3604693324E+00
                       2.8150866519E+00 -1.6872365891E-02 -6.4474389645E+00
                       7.7655773806E+00  1.5811090768E+00 -8.8134699320E+00
             xred     -3.0692094551E-18  5.0000000000E-01  5.0000000000E-01
                       0.0000000000E+00  0.0000000000E+00  0.0000000000E+00
                       4.5488100000E-01  6.2048700000E-01  4.1082900000E-01
                       5.4511900000E-01  1.2048700000E-01  8.9171000000E-02
                       5.4511900000E-01  3.7951300000E-01  5.8917100000E-01
                       4.5488100000E-01  8.7951300000E-01  9.1082900000E-01
                       8.0116400000E-01  2.9255400000E-01  6.7855800000E-01
                       1.9883600000E-01  7.9255400000E-01  8.2144200000E-01
                       1.9883600000E-01  7.0744600000E-01  3.2144200000E-01
                       8.0116400000E-01  2.0744600000E-01  1.7855800000E-01
                       6.4242900000E-01  7.1567600000E-01  3.6627900000E-01
                       3.5757100000E-01  2.1567600000E-01  1.3372100000E-01
                       3.5757100000E-01  2.8432400000E-01  6.3372100000E-01
                       6.4242900000E-01  7.8432400000E-01  8.6627900000E-01
            znucl       28.00000    6.00000    8.00000

================================================================================

 chkinp: Checking input parameters for consistency.
 DATA TYPE INFORMATION: 
 REAL:      Data type name: REAL(DP) 
            Kind value:      8
            Precision:      15
            Smallest nonnegligible quantity relative to 1: 0.22204460E-015
            Smallest positive number:                      0.22250739E-307
            Largest representable number:                  0.17976931E+309
 INTEGER:   Data type name: INTEGER(default) 
            Kind value: 4
            Bit size:   32
            Largest representable number: 2147483647
 LOGICAL:   Data type name: LOGICAL 
            Kind value: 4
 CHARACTER: Data type name: CHARACTER             Kind value: 1

  ==== OpenMP parallelism is OFF ====
 
  ==== Using MPI-2 specifications ==== 
  MPI-IO support is ON
  xmpi_tag_ub ................    268435455
  xmpi_bsize_ch ..............            1
  xmpi_bsize_int .............            4
  xmpi_bsize_sp ..............            4
  xmpi_bsize_dp ..............            8
  xmpi_bsize_spc .............            8
  xmpi_bsize_dpc .............           16
  xmpio_bsize_frm ............            4
  xmpi_address_kind ..........            8
  xmpi_offset_kind ...........            8
  MPI_WTICK ..................    1.0000000000000001E-009

================================================================================
== DATASET  1 ==================================================================
-   mpi_nproc: 16, omp_nthreads: -1 (-1 if OMP is not activated)


--- !COMMENT
src_file: m_xgScalapack.F90
src_line: 236
message: |
    xgScalapack in auto mode
...


 getdim_nloc : deduce lmnmax  =  18, lnmax  =   6,
                      lmnmaxso=  18, lnmaxso=   6.
 SCAN exchange of Sun, Ruzsinszky, and Perdew
 J. Sun, A. Ruzsinszky, and J. P. Perdew, Phys. Rev. Lett. 115, 036402 (2015)
 SCAN correlation of Sun, Ruzsinszky, and Perdew
 J. Sun, A. Ruzsinszky, and J. P. Perdew, Phys. Rev. Lett. 115, 036402 (2015)

 Unit cell volume ucvol=  1.0517586E+03 bohr^3
 Angles (23,13,12)=  9.00000000E+01  1.20185586E+02  9.00000000E+01 degrees

 getcut: wavevector=  0.0000  0.0000  0.0000  ngfft= 150 144 180
         ecut(hartree)=    250.000   => boxcut(ratio)=   2.01845
 Relative gap for number of plane waves between process (%):  0.02
- pspini: atom type   1  psp file is ../Ni.pot
- pspatm: opening atomic psp file    ../Ni.pot
- Ni    ONCVPSP-4.0.1  r_core=   2.18101   2.18101   2.24723
- 28.00000  18.00000    200312                znucl, zion, pspdat
    8   11    2    4       600   0.00000      pspcod,pspxc,lmax,lloc,mmax,r2well

--- !WARNING
src_file: m_pspini.F90
src_line: 1039
message: |
    Pseudopotential file pspxc: 11, not equal to input ixc: -263267.
    These parameters must agree to get the same xc in ABINIT code as in psp construction.
    Action: check psp design or input file.
    Assume experienced user. Execution will continue.
...

    5.99000000000000    0.00000000000000    0.00000000000000   rchrg,fchrg,qchrg
     nproj     2     2     2
     extension_switch     1
  valence charge integrates to:    17.968162128216466     
  pspatm : epsatm=   38.47316822
         --- l  ekb(1:nproj) -->
             0   -3.440917   -0.196078
             1   -5.406223   -1.725842
             2   -7.274254   -2.503385
 pspatm: atomic psp has been read  and splines computed

- pspini: atom type   2  psp file is ../C.pot
- pspatm: opening atomic psp file    ../C.pot
- C     ONCVPSP-4.0.1  r_core=   1.42727   1.38521
-  6.00000   4.00000    200312                znucl, zion, pspdat
    8   11    1    4       600   0.00000      pspcod,pspxc,lmax,lloc,mmax,r2well

--- !WARNING
src_file: m_pspini.F90
src_line: 1039
message: |
    Pseudopotential file pspxc: 11, not equal to input ixc: -263267.
    These parameters must agree to get the same xc in ABINIT code as in psp construction.
    Action: check psp design or input file.
    Assume experienced user. Execution will continue.
...

    5.99000000000000    0.00000000000000    0.00000000000000   rchrg,fchrg,qchrg
     nproj     2     2
     extension_switch     1
  valence charge integrates to:    3.9929454931231523     
  pspatm : epsatm=    2.26998732
         --- l  ekb(1:nproj) -->
             0    7.571912    0.889574
             1   -3.169338   -0.856835
 pspatm: atomic psp has been read  and splines computed

- pspini: atom type   3  psp file is ../O.pot
- pspatm: opening atomic psp file    ../O.pot
- O     ONCVPSP-4.0.1  r_core=   1.28926   1.47061
-  8.00000   6.00000    200312                znucl, zion, pspdat
    8   11    1    4       600   0.00000      pspcod,pspxc,lmax,lloc,mmax,r2well

--- !WARNING
src_file: m_pspini.F90
src_line: 1039
message: |
    Pseudopotential file pspxc: 11, not equal to input ixc: -263267.
    These parameters must agree to get the same xc in ABINIT code as in psp construction.
    Action: check psp design or input file.
    Assume experienced user. Execution will continue.
...

    5.99000000000000    0.00000000000000    0.00000000000000   rchrg,fchrg,qchrg
     nproj     2     2
     extension_switch     1
  valence charge integrates to:    5.9990318584788609     
  pspatm : epsatm=    3.44365635
         --- l  ekb(1:nproj) -->
             0    9.802940    1.339963
             1   -3.661294   -1.085684
 pspatm: atomic psp has been read  and splines computed

   1.13575537E+04                                ecore*ucvol(ha*bohr**3)
 ==== Info on pseudopotentials ====
  Norm-conserving pseudopotentials
  Number of pseudopotentials ..    3
  Number of types of atoms   ..    3
  Scalar calculation (no spin-orbit term)
  Nonlocal part applied using Legendre polynomials
  Max number of non-local projectors over l and type   2
  Highest angular momentum +1 .......   3
  Max number of (l,n)   components ..   6
  Max number of (l,m,n) components ..   6

 Info on the Q-grid used for form factors in spline form: 
   Number of q-points for radial functions ffspl ..   7242
   Number of q-points for vlspl ...................   7242
   vloc is computed in Reciprocal Space
   model core charge treated in real-space

  XC functional for type 1 is 11
  Pseudo valence available: yes
  XC functional for type 2 is 11
  Pseudo valence available: yes
  XC functional for type 3 is 11
  Pseudo valence available: yes

 newkpt: spin channel isppol2 =     1
 wfconv:    65 bands initialized randomly with npw= 99275, for ikpt=     1
 newkpt: spin channel isppol2 =     2
_setup2: Arith. and geom. avg. npw (full set) are   99312.500   99312.493
 initro: for itypat=  1, take pseudo charge density from pp file
 initro: for itypat=  2, take pseudo charge density from pp file
 initro: for itypat=  3, take pseudo charge density from pp file

================================================================================

 getcut: wavevector=  0.0000  0.0000  0.0000  ngfft= 150 144 180
         ecut(hartree)=    250.000   => boxcut(ratio)=   2.01845

 1/G**2 cut-off applied in the following step : cutoff-mode = CRYSTAL

 1/G**2 cut-off applied in the following step : cutoff-mode = CRYSTAL

 1/G**2 cut-off applied in the following step : cutoff-mode = CRYSTAL

 ITER STEP NUMBER     1
 Max number of non-self-consistent loops: 2
 You should try to get npband*bandpp=   65
 For information matrix size is    99275
 You should try to get npband*bandpp=   65
 For information matrix size is    99275
 newocc: new Fermi energy is       0.102300 , with nelect=    100.000000, Number of bisection calls: 47
 mkrho: echo density (plane-wave part only)
 Total charge density [el/Bohr^3]
      Maximum=    2.8865E+00  at reduced coord.    0.0200    0.0278    0.4667
      Minimum=    1.1174E-03  at reduced coord.    0.9733    0.4792    0.0167
   Integrated=    1.0000E+02
 Spin up density      [el/Bohr^3]
      Maximum=    1.4519E+00  at reduced coord.    0.0600    0.9792    0.0278
      Minimum=    5.1142E-04  at reduced coord.    0.9667    0.4792    0.0167
   Integrated=    5.1067E+01
 Spin down density    [el/Bohr^3]
      Maximum=    1.4390E+00  at reduced coord.    0.0200    0.0278    0.4667
      Minimum=    6.0553E-04  at reduced coord.    0.9800    0.4792    0.0167
   Integrated=    4.8933E+01
 Magnetization (spin up - spin down) [el/Bohr^3]
      Maximum=    1.1202E-01  at reduced coord.    0.0400    0.5486    0.0611
      Minimum=   -1.9471E-02  at reduced coord.    0.0733    0.0417    0.0556
   Integrated=    2.1336E+00
 Relative magnetization (=zeta, between -1 and 1)
      Maximum=    2.9548E-01  at reduced coord.    0.4400    0.5972    0.3778
      Minimum=   -1.0427E-01  at reduced coord.    0.0000    0.5625    0.3833
 mkrho: echo density (plane-wave part only)
 Total kinetic energy density [Ha/Bohr^3]
      Maximum=    1.8568E+01  at reduced coord.    0.0000    0.0000    0.0000
      Minimum=    8.3541E-04  at reduced coord.    0.9933    0.5000    0.0000
   Integrated=    2.3007E+02
 Spin up density      [Ha/Bohr^3]
      Maximum=    9.3107E+00  at reduced coord.    0.0000    0.5000    0.0000
      Minimum=    3.8703E-04  at reduced coord.    0.0000    0.4931    0.0056
   Integrated=    1.1901E+02
 Spin down density    [Ha/Bohr^3]
      Maximum=    9.2570E+00  at reduced coord.    0.0000    0.0000    0.0000
      Minimum=    4.3374E-04  at reduced coord.    0.9800    0.0069    0.0111
   Integrated=    1.1106E+02
 Magnetization (spin up - spin down) [Ha/Bohr^3]
      Maximum=    8.2138E-01  at reduced coord.    0.2000    0.7917    0.3222
      Minimum=   -2.7492E-02  at reduced coord.    0.9333    0.9792    0.0000
   Integrated=    7.9473E+00
 Relative magnetization (=zeta, between -1 and 1)
      Maximum=    3.4549E-01  at reduced coord.    0.5000    0.5000    0.0000
      Minimum=   -8.5873E-02  at reduced coord.    0.0533    0.4444    0.0333
 Total charge density [el/Bohr^3]
      Maximum=    2.8865E+00  at reduced coord.    0.0200    0.0278    0.4667
      Minimum=    1.1174E-03  at reduced coord.    0.9733    0.4792    0.0167
   Integrated=    1.0000E+02
 Spin up density      [el/Bohr^3]
      Maximum=    1.4519E+00  at reduced coord.    0.0600    0.9792    0.0278
      Minimum=    5.1142E-04  at reduced coord.    0.9667    0.4792    0.0167
   Integrated=    5.1067E+01
 Spin down density    [el/Bohr^3]
      Maximum=    1.4390E+00  at reduced coord.    0.0200    0.0278    0.4667
      Minimum=    6.0553E-04  at reduced coord.    0.9800    0.4792    0.0167
   Integrated=    4.8933E+01
 Magnetization (spin up - spin down) [el/Bohr^3]
      Maximum=    1.1202E-01  at reduced coord.    0.0400    0.5486    0.0611
      Minimum=   -1.9471E-02  at reduced coord.    0.0733    0.0417    0.0556
   Integrated=    2.1336E+00
 Relative magnetization (=zeta, between -1 and 1)
      Maximum=    2.9548E-01  at reduced coord.    0.4400    0.5972    0.3778
      Minimum=   -1.0427E-01  at reduced coord.    0.0000    0.5625    0.3833

 1/G**2 cut-off applied in the following step : cutoff-mode = CRYSTAL
 ETOT  1  -456.46484283318    -4.56E+02 1.40E-02 3.62E+05 2.134
 scprqt: <Vxc>= -3.8881580E-01 hartree

 Simple mixing update:
  residual square of the potential:    57949.089721153126
{SCF_istep: 1 , Vnl|psi>: 780 , wall_time: ' 05:01 [minutes] '} <<< TIME

 ITER STEP NUMBER     2
 Max number of non-self-consistent loops: 2
 You should try to get npband*bandpp=   65
 For information matrix size is    99275
 You should try to get npband*bandpp=   65
 For information matrix size is    99275
 newocc: new Fermi energy is       0.054661 , with nelect=    100.000000, Number of bisection calls: 49
 mkrho: echo density (plane-wave part only)
 Total charge density [el/Bohr^3]
      Maximum=    3.2521E+00  at reduced coord.    0.9467    0.9653    0.4778
      Minimum=    1.2413E-03  at reduced coord.    0.0000    0.5000    0.0000
   Integrated=    1.0000E+02
 Spin up density      [el/Bohr^3]
      Maximum=    1.6416E+00  at reduced coord.    0.9467    0.5347    0.4833
      Minimum=    5.7814E-04  at reduced coord.    0.0067    0.0000    0.0000
   Integrated=    5.2000E+01
 Spin down density    [el/Bohr^3]
      Maximum=    1.6124E+00  at reduced coord.    0.9533    0.9583    0.4722
      Minimum=    6.5562E-04  at reduced coord.    0.0000    0.5000    0.0056
   Integrated=    4.8000E+01
 Magnetization (spin up - spin down) [el/Bohr^3]
      Maximum=    1.9559E-01  at reduced coord.    0.6133    0.7500    0.3333
      Minimum=   -3.5781E-03  at reduced coord.    0.9867    0.4792    0.4889
   Integrated=    4.0000E+00
 Relative magnetization (=zeta, between -1 and 1)
      Maximum=    2.3625E-01  at reduced coord.    0.6133    0.7431    0.3333
      Minimum=   -7.6055E-02  at reduced coord.    0.1800    0.0903    0.3167
 mkrho: echo density (plane-wave part only)
 Total kinetic energy density [Ha/Bohr^3]
      Maximum=    2.1770E+01  at reduced coord.    0.9933    0.9792    0.4833
      Minimum=    7.6591E-04  at reduced coord.    0.9933    0.5000    0.0000
   Integrated=    2.4820E+02
 Spin up density      [Ha/Bohr^3]
      Maximum=    1.0942E+01  at reduced coord.    0.9933    0.9722    0.4889
      Minimum=    3.8396E-04  at reduced coord.    0.9933    0.0000    0.0000
   Integrated=    1.2959E+02
 Spin down density    [Ha/Bohr^3]
      Maximum=    1.0851E+01  at reduced coord.    0.9800    0.4792    0.4889
      Minimum=    3.7699E-04  at reduced coord.    0.9933    0.5000    0.0056
   Integrated=    1.1861E+02
 Magnetization (spin up - spin down) [Ha/Bohr^3]
      Maximum=    1.9828E+00  at reduced coord.    0.6400    0.7153    0.3667
      Minimum=   -1.4511E-01  at reduced coord.    0.0400    0.5486    0.0556
   Integrated=    1.0979E+01
 Relative magnetization (=zeta, between -1 and 1)
      Maximum=    3.0169E-01  at reduced coord.    0.6867    0.7292    0.3611
      Minimum=   -3.3660E-02  at reduced coord.    0.1133    0.2847    0.2278
 Total charge density [el/Bohr^3]
      Maximum=    3.2521E+00  at reduced coord.    0.9467    0.9653    0.4778
      Minimum=    1.2413E-03  at reduced coord.    0.0000    0.5000    0.0000
   Integrated=    1.0000E+02
 Spin up density      [el/Bohr^3]
      Maximum=    1.6416E+00  at reduced coord.    0.9467    0.5347    0.4833
      Minimum=    5.7814E-04  at reduced coord.    0.0067    0.0000    0.0000
   Integrated=    5.2000E+01
 Spin down density    [el/Bohr^3]
      Maximum=    1.6124E+00  at reduced coord.    0.9533    0.9583    0.4722
      Minimum=    6.5562E-04  at reduced coord.    0.0000    0.5000    0.0056
   Integrated=    4.8000E+01
 Magnetization (spin up - spin down) [el/Bohr^3]
      Maximum=    1.9559E-01  at reduced coord.    0.6133    0.7500    0.3333
      Minimum=   -3.5781E-03  at reduced coord.    0.9867    0.4792    0.4889
   Integrated=    4.0000E+00
 Relative magnetization (=zeta, between -1 and 1)
      Maximum=    2.3625E-01  at reduced coord.    0.6133    0.7431    0.3333
      Minimum=   -7.6055E-02  at reduced coord.    0.1800    0.0903    0.3167
 ETOT  2  -455.48331127607     9.82E-01 1.11E-03 1.02E+06 4.000
 scprqt: <Vxc>= -3.8933920E-01 hartree

 Pulay update with  1 previous iterations:
 mixing of old trial potential: alpha(m:m-4)=  0.353      0.647
{SCF_istep: 2 , Vnl|psi>: 780 , wall_time: ' 04:50 [minutes] '} <<< TIME

 ITER STEP NUMBER     3
 You should try to get npband*bandpp=   65
 For information matrix size is    99275
 newocc: new Fermi energy is       0.036661 , with nelect=    100.000000, Number of bisection calls: 44
 mkrho: echo density (plane-wave part only)
 Total charge density [el/Bohr^3]
      Maximum=    3.0880E+00  at reduced coord.    0.9400    0.0208    0.4833
      Minimum=    1.6594E-03  at reduced coord.    0.9933    0.0208    0.0111
   Integrated=    1.0000E+02
 Spin up density      [el/Bohr^3]
      Maximum=    1.5896E+00  at reduced coord.    0.9467    0.5347    0.4833
      Minimum=    7.9201E-04  at reduced coord.    0.0133    0.0000    0.0000
   Integrated=    5.1989E+01
 Spin down density    [el/Bohr^3]
      Maximum=    1.5361E+00  at reduced coord.    0.9400    0.0208    0.4778
      Minimum=    8.4847E-04  at reduced coord.    0.9733    0.0278    0.0167
   Integrated=    4.8011E+01
 Magnetization (spin up - spin down) [el/Bohr^3]
      Maximum=    2.4735E-01  at reduced coord.    0.0667    0.4583    0.0222
      Minimum=   -1.5562E-03  at reduced coord.    0.8467    0.4514    0.4389
   Integrated=    3.9779E+00
 Relative magnetization (=zeta, between -1 and 1)
      Maximum=    2.0009E-01  at reduced coord.    0.3267    0.3194    0.1111
      Minimum=   -1.0008E-01  at reduced coord.    0.5200    0.4583    0.4333
 mkrho: echo density (plane-wave part only)
 Total kinetic energy density [Ha/Bohr^3]
      Maximum=    2.0410E+01  at reduced coord.    0.9867    0.0069    0.4778
      Minimum=    1.1061E-03  at reduced coord.    0.0267    0.9722    0.4722
   Integrated=    2.3861E+02
 Spin up density      [Ha/Bohr^3]
      Maximum=    1.0404E+01  at reduced coord.    0.0067    0.0069    0.0222
      Minimum=    5.3205E-04  at reduced coord.    0.9467    0.4861    0.0167
   Integrated=    1.2652E+02
 Spin down density    [Ha/Bohr^3]
      Maximum=    1.0051E+01  at reduced coord.    0.9867    0.0139    0.4833
      Minimum=    5.5557E-04  at reduced coord.    0.0200    0.9792    0.4778
   Integrated=    1.1210E+02
 Magnetization (spin up - spin down) [Ha/Bohr^3]
      Maximum=    1.2914E+00  at reduced coord.    0.8000    0.2083    0.1778
      Minimum=   -1.4798E-02  at reduced coord.    0.0400    0.5486    0.0556
   Integrated=    1.4421E+01
 Relative magnetization (=zeta, between -1 and 1)
      Maximum=    1.8436E-01  at reduced coord.    0.2067    0.3958    0.0667
      Minimum=   -8.2664E-02  at reduced coord.    0.9067    0.4792    0.0222
 Total charge density [el/Bohr^3]
      Maximum=    3.0880E+00  at reduced coord.    0.9400    0.0208    0.4833
      Minimum=    1.6594E-03  at reduced coord.    0.9933    0.0208    0.0111
   Integrated=    1.0000E+02
 Spin up density      [el/Bohr^3]
      Maximum=    1.5896E+00  at reduced coord.    0.9467    0.5347    0.4833
      Minimum=    7.9201E-04  at reduced coord.    0.0133    0.0000    0.0000
   Integrated=    5.1989E+01
 Spin down density    [el/Bohr^3]
      Maximum=    1.5361E+00  at reduced coord.    0.9400    0.0208    0.4778
      Minimum=    8.4847E-04  at reduced coord.    0.9733    0.0278    0.0167
   Integrated=    4.8011E+01
 Magnetization (spin up - spin down) [el/Bohr^3]
      Maximum=    2.4735E-01  at reduced coord.    0.0667    0.4583    0.0222
      Minimum=   -1.5562E-03  at reduced coord.    0.8467    0.4514    0.4389
   Integrated=    3.9779E+00
 Relative magnetization (=zeta, between -1 and 1)
      Maximum=    2.0009E-01  at reduced coord.    0.3267    0.3194    0.1111
      Minimum=   -1.0008E-01  at reduced coord.    0.5200    0.4583    0.4333
 ETOT  3  -457.40798484694    -1.92E+00 4.25E-03 3.43E+05 3.978
 scprqt: <Vxc>= -3.9232273E-01 hartree

 Pulay update with  2 previous iterations:
 mixing of old trial potential: alpha(m:m-4)=  0.393      0.868E-01  0.520
{SCF_istep: 3 , Vnl|psi>: 390 , wall_time: ' 02:34 [minutes] '} <<< TIME

 ITER STEP NUMBER     4
 You should try to get npband*bandpp=   65
 For information matrix size is    99275
 newocc: new Fermi energy is       0.040470 , with nelect=    100.000000, Number of bisection calls: 49
 mkrho: echo density (plane-wave part only)
 Total charge density [el/Bohr^3]
      Maximum=    3.0815E+00  at reduced coord.    0.9400    0.0208    0.4778
      Minimum=    1.0422E-03  at reduced coord.    0.0000    0.5000    0.0000
   Integrated=    1.0000E+02
 Spin up density      [el/Bohr^3]
      Maximum=    1.5581E+00  at reduced coord.    0.9467    0.5278    0.4944
      Minimum=    4.6955E-04  at reduced coord.    0.0000    0.5000    0.0000
   Integrated=    5.1627E+01
 Spin down density    [el/Bohr^3]
      Maximum=    1.5360E+00  at reduced coord.    0.9800    0.9722    0.0333
      Minimum=    5.7269E-04  at reduced coord.    0.0000    0.5000    0.0000
   Integrated=    4.8373E+01
 Magnetization (spin up - spin down) [el/Bohr^3]
      Maximum=    3.4760E-01  at reduced coord.    0.9333    0.5417    0.4778
      Minimum=   -2.0644E-03  at reduced coord.    0.0067    0.5000    0.0167
   Integrated=    3.2544E+00
 Relative magnetization (=zeta, between -1 and 1)
      Maximum=    1.9963E-01  at reduced coord.    0.9533    0.4306    0.0611
      Minimum=   -1.1026E-01  at reduced coord.    0.9200    0.0139    0.0167
 mkrho: echo density (plane-wave part only)
 Total kinetic energy density [Ha/Bohr^3]
      Maximum=    2.0119E+01  at reduced coord.    0.0133    0.9861    0.0167
      Minimum=    7.3042E-04  at reduced coord.    0.0000    0.0000    0.0000
   Integrated=    2.3882E+02
 Spin up density      [Ha/Bohr^3]
      Maximum=    1.0334E+01  at reduced coord.    0.0133    0.5139    0.0222
      Minimum=    3.3950E-04  at reduced coord.    0.0000    0.5000    0.0000
   Integrated=    1.2658E+02
 Spin down density    [Ha/Bohr^3]
      Maximum=    9.8569E+00  at reduced coord.    0.0067    0.9861    0.0111
      Minimum=    3.8771E-04  at reduced coord.    0.0000    0.0000    0.0000
   Integrated=    1.1224E+02
 Magnetization (spin up - spin down) [Ha/Bohr^3]
      Maximum=    1.6656E+00  at reduced coord.    0.9733    0.5208    0.0278
      Minimum=   -7.6910E-03  at reduced coord.    0.0000    0.5000    0.0000
   Integrated=    1.4346E+01
 Relative magnetization (=zeta, between -1 and 1)
      Maximum=    2.2017E-01  at reduced coord.    0.0933    0.6111    0.4056
      Minimum=   -8.7314E-02  at reduced coord.    0.9667    0.4792    0.0111
 Total charge density [el/Bohr^3]
      Maximum=    3.0815E+00  at reduced coord.    0.9400    0.0208    0.4778
      Minimum=    1.0422E-03  at reduced coord.    0.0000    0.5000    0.0000
   Integrated=    1.0000E+02
 Spin up density      [el/Bohr^3]
      Maximum=    1.5581E+00  at reduced coord.    0.9467    0.5278    0.4944
      Minimum=    4.6955E-04  at reduced coord.    0.0000    0.5000    0.0000
   Integrated=    5.1627E+01
 Spin down density    [el/Bohr^3]
      Maximum=    1.5360E+00  at reduced coord.    0.9800    0.9722    0.0333
      Minimum=    5.7269E-04  at reduced coord.    0.0000    0.5000    0.0000
   Integrated=    4.8373E+01
 Magnetization (spin up - spin down) [el/Bohr^3]
      Maximum=    3.4760E-01  at reduced coord.    0.9333    0.5417    0.4778
      Minimum=   -2.0644E-03  at reduced coord.    0.0067    0.5000    0.0167
   Integrated=    3.2544E+00
 Relative magnetization (=zeta, between -1 and 1)
      Maximum=    1.9963E-01  at reduced coord.    0.9533    0.4306    0.0611
      Minimum=   -1.1026E-01  at reduced coord.    0.9200    0.0139    0.0167
 ETOT  4  -458.59393387277    -1.19E+00 7.15E-04 1.80E+05 3.254
 scprqt: <Vxc>= -3.8889565E-01 hartree

 Pulay update with  3 previous iterations:
 mixing of old trial potential: alpha(m:m-4)=  0.294      0.221      0.440E-01  0.441
{SCF_istep: 4 , Vnl|psi>: 390 , wall_time: ' 02:34 [minutes] '} <<< TIME

 ITER STEP NUMBER     5
 You should try to get npband*bandpp=   65
 For information matrix size is    99275
 newocc: new Fermi energy is       0.047220 , with nelect=    100.000000, Number of bisection calls: 49
 mkrho: echo density (plane-wave part only)
 Total charge density [el/Bohr^3]
      Maximum=    3.0685E+00  at reduced coord.    0.9400    0.4792    0.4778
      Minimum=    1.0672E-03  at reduced coord.    0.0000    0.5000    0.0000
   Integrated=    1.0000E+02
 Spin up density      [el/Bohr^3]
      Maximum=    1.5486E+00  at reduced coord.    0.9467    0.5000    0.0056
      Minimum=    4.9110E-04  at reduced coord.    0.0000    0.5000    0.0000
   Integrated=    5.1605E+01
 Spin down density    [el/Bohr^3]
      Maximum=    1.5316E+00  at reduced coord.    0.9733    0.5208    0.0333
      Minimum=    5.7615E-04  at reduced coord.    0.0000    0.5000    0.0000
   Integrated=    4.8395E+01
 Magnetization (spin up - spin down) [el/Bohr^3]
      Maximum=    3.4708E-01  at reduced coord.    0.0267    0.5417    0.4611
      Minimum=   -4.1910E-03  at reduced coord.    0.0000    0.5208    0.0000
   Integrated=    3.2096E+00
 Relative magnetization (=zeta, between -1 and 1)
      Maximum=    2.2841E-01  at reduced coord.    0.9533    0.4306    0.0611
      Minimum=   -8.0119E-02  at reduced coord.    0.0267    0.5208    0.4778
 mkrho: echo density (plane-wave part only)
 Total kinetic energy density [Ha/Bohr^3]
      Maximum=    1.9921E+01  at reduced coord.    0.9867    0.0139    0.4833
      Minimum=    7.3655E-04  at reduced coord.    0.0000    0.0000    0.0000
   Integrated=    2.3784E+02
 Spin up density      [Ha/Bohr^3]
      Maximum=    1.0233E+01  at reduced coord.    0.0133    0.5139    0.0222
      Minimum=    3.4659E-04  at reduced coord.    0.0000    0.5000    0.0000
   Integrated=    1.2606E+02
 Spin down density    [Ha/Bohr^3]
      Maximum=    9.8208E+00  at reduced coord.    0.9933    0.0069    0.4889
      Minimum=    3.8880E-04  at reduced coord.    0.0000    0.0000    0.0000
   Integrated=    1.1178E+02
 Magnetization (spin up - spin down) [Ha/Bohr^3]
      Maximum=    1.7534E+00  at reduced coord.    0.9800    0.5208    0.0278
      Minimum=   -1.6802E-01  at reduced coord.    0.9333    0.9583    0.4722
   Integrated=    1.4278E+01
 Relative magnetization (=zeta, between -1 and 1)
      Maximum=    2.4865E-01  at reduced coord.    0.1133    0.6458    0.1667
      Minimum=   -6.2397E-02  at reduced coord.    0.9733    0.4861    0.0167
 Total charge density [el/Bohr^3]
      Maximum=    3.0685E+00  at reduced coord.    0.9400    0.4792    0.4778
      Minimum=    1.0672E-03  at reduced coord.    0.0000    0.5000    0.0000
   Integrated=    1.0000E+02
 Spin up density      [el/Bohr^3]
      Maximum=    1.5486E+00  at reduced coord.    0.9467    0.5000    0.0056
      Minimum=    4.9110E-04  at reduced coord.    0.0000    0.5000    0.0000
   Integrated=    5.1605E+01
 Spin down density    [el/Bohr^3]
      Maximum=    1.5316E+00  at reduced coord.    0.9733    0.5208    0.0333
      Minimum=    5.7615E-04  at reduced coord.    0.0000    0.5000    0.0000
   Integrated=    4.8395E+01
 Magnetization (spin up - spin down) [el/Bohr^3]
      Maximum=    3.4708E-01  at reduced coord.    0.0267    0.5417    0.4611
      Minimum=   -4.1910E-03  at reduced coord.    0.0000    0.5208    0.0000
   Integrated=    3.2096E+00
 Relative magnetization (=zeta, between -1 and 1)
      Maximum=    2.2841E-01  at reduced coord.    0.9533    0.4306    0.0611
      Minimum=   -8.0119E-02  at reduced coord.    0.0267    0.5208    0.4778
 ETOT  5  -458.78442008171    -1.90E-01 1.73E-04 1.30E+05 3.210
 scprqt: <Vxc>= -3.8893273E-01 hartree

 Pulay update with  4 previous iterations:
 mixing of old trial potential: alpha(m:m-4)=  0.538     -0.156      0.180      0.465E-01  0.391
{SCF_istep: 5 , Vnl|psi>: 390 , wall_time: ' 02:33 [minutes] '} <<< TIME

 ITER STEP NUMBER     6
 You should try to get npband*bandpp=   65
 For information matrix size is    99275
 newocc: new Fermi energy is       0.050733 , with nelect=    100.000000, Number of bisection calls: 47
 mkrho: echo density (plane-wave part only)
 Total charge density [el/Bohr^3]
      Maximum=    3.0789E+00  at reduced coord.    0.9400    0.0208    0.4778
      Minimum=    1.0604E-03  at reduced coord.    0.0000    0.5000    0.0000
   Integrated=    1.0000E+02
 Spin up density      [el/Bohr^3]
      Maximum=    1.5590E+00  at reduced coord.    0.0533    0.4653    0.0167
      Minimum=    4.9431E-04  at reduced coord.    0.0000    0.5000    0.0000
   Integrated=    5.1664E+01
 Spin down density    [el/Bohr^3]
      Maximum=    1.5417E+00  at reduced coord.    0.9733    0.9792    0.0333
      Minimum=    5.6590E-04  at reduced coord.    0.9933    0.4931    0.0056
   Integrated=    4.8336E+01
 Magnetization (spin up - spin down) [el/Bohr^3]
      Maximum=    3.9264E-01  at reduced coord.    0.9267    0.5417    0.4722
      Minimum=   -1.2603E-02  at reduced coord.    0.9467    0.4792    0.4778
   Integrated=    3.3274E+00
 Relative magnetization (=zeta, between -1 and 1)
      Maximum=    2.4473E-01  at reduced coord.    0.9333    0.0833    0.4000
      Minimum=   -7.7700E-02  at reduced coord.    0.9200    0.0278    0.0167
 mkrho: echo density (plane-wave part only)
 Total kinetic energy density [Ha/Bohr^3]
      Maximum=    1.9901E+01  at reduced coord.    0.9867    0.0139    0.4833
      Minimum=    7.4051E-04  at reduced coord.    0.0000    0.0000    0.0000
   Integrated=    2.3748E+02
 Spin up density      [Ha/Bohr^3]
      Maximum=    1.0240E+01  at reduced coord.    0.9867    0.0139    0.4778
      Minimum=    3.5047E-04  at reduced coord.    0.0000    0.0000    0.0000
   Integrated=    1.2615E+02
 Spin down density    [Ha/Bohr^3]
      Maximum=    9.8235E+00  at reduced coord.    0.0000    0.4931    0.0000
      Minimum=    3.9003E-04  at reduced coord.    0.0000    0.0000    0.0000
   Integrated=    1.1133E+02
 Magnetization (spin up - spin down) [Ha/Bohr^3]
      Maximum=    1.7951E+00  at reduced coord.    0.0267    0.4792    0.4722
      Minimum=   -2.4806E-01  at reduced coord.    0.0667    0.4583    0.0278
   Integrated=    1.4820E+01
 Relative magnetization (=zeta, between -1 and 1)
      Maximum=    2.6204E-01  at reduced coord.    0.8800    0.1389    0.3278
      Minimum=   -6.1021E-02  at reduced coord.    0.9600    0.4583    0.0278
 Total charge density [el/Bohr^3]
      Maximum=    3.0789E+00  at reduced coord.    0.9400    0.0208    0.4778
      Minimum=    1.0604E-03  at reduced coord.    0.0000    0.5000    0.0000
   Integrated=    1.0000E+02
 Spin up density      [el/Bohr^3]
      Maximum=    1.5590E+00  at reduced coord.    0.0533    0.4653    0.0167
      Minimum=    4.9431E-04  at reduced coord.    0.0000    0.5000    0.0000
   Integrated=    5.1664E+01
 Spin down density    [el/Bohr^3]
      Maximum=    1.5417E+00  at reduced coord.    0.9733    0.9792    0.0333
      Minimum=    5.6590E-04  at reduced coord.    0.9933    0.4931    0.0056
   Integrated=    4.8336E+01
 Magnetization (spin up - spin down) [el/Bohr^3]
      Maximum=    3.9264E-01  at reduced coord.    0.9267    0.5417    0.4722
      Minimum=   -1.2603E-02  at reduced coord.    0.9467    0.4792    0.4778
   Integrated=    3.3274E+00
 Relative magnetization (=zeta, between -1 and 1)
      Maximum=    2.4473E-01  at reduced coord.    0.9333    0.0833    0.4000
      Minimum=   -7.7700E-02  at reduced coord.    0.9200    0.0278    0.0167
 ETOT  6  -458.82018733434    -3.58E-02 1.48E-04 1.14E+05 3.327
 scprqt: <Vxc>= -3.8911045E-01 hartree

 Pulay update with  5 previous iterations:
 mixing of old trial potential: alpha(m:m-4)=  0.629      0.210     -0.417      0.169      0.561E-01
{SCF_istep: 6 , Vnl|psi>: 390 , wall_time: ' 02:34 [minutes] '} <<< TIME

 ITER STEP NUMBER     7
 You should try to get npband*bandpp=   65
 For information matrix size is    99275
 newocc: new Fermi energy is       0.050605 , with nelect=    100.000000, Number of bisection calls: 41
 mkrho: echo density (plane-wave part only)
 Total charge density [el/Bohr^3]
      Maximum=    3.0983E+00  at reduced coord.    0.9733    0.5208    0.0333
      Minimum=    1.0753E-03  at reduced coord.    0.9933    0.5000    0.0000
   Integrated=    1.0000E+02
 Spin up density      [el/Bohr^3]
      Maximum=    1.5673E+00  at reduced coord.    0.9467    0.5347    0.4833
      Minimum=    4.9943E-04  at reduced coord.    0.9867    0.0069    0.0056
   Integrated=    5.1958E+01
 Spin down density    [el/Bohr^3]
      Maximum=    1.5497E+00  at reduced coord.    0.9733    0.5208    0.0333
      Minimum=    5.7263E-04  at reduced coord.    0.9933    0.4931    0.0056
   Integrated=    4.8042E+01
 Magnetization (spin up - spin down) [el/Bohr^3]
      Maximum=    4.9331E-01  at reduced coord.    0.0400    0.5486    0.0611
      Minimum=   -6.8990E-03  at reduced coord.    0.0000    0.5278    0.0000
   Integrated=    3.9158E+00
 Relative magnetization (=zeta, between -1 and 1)
      Maximum=    3.5733E-01  at reduced coord.    0.9333    0.4167    0.3944
      Minimum=   -8.0241E-02  at reduced coord.    0.0933    0.5278    0.4778
 mkrho: echo density (plane-wave part only)
 Total kinetic energy density [Ha/Bohr^3]
      Maximum=    1.9880E+01  at reduced coord.    0.9867    0.5139    0.4944
      Minimum=    7.4213E-04  at reduced coord.    0.0000    0.5000    0.0000
   Integrated=    2.3753E+02
 Spin up density      [Ha/Bohr^3]
      Maximum=    1.0360E+01  at reduced coord.    0.0067    0.5208    0.0167
      Minimum=    3.4827E-04  at reduced coord.    0.0000    0.5000    0.0000
   Integrated=    1.2765E+02
 Spin down density    [Ha/Bohr^3]
      Maximum=    9.8189E+00  at reduced coord.    0.0000    0.0000    0.0000
      Minimum=    3.9386E-04  at reduced coord.    0.0000    0.5000    0.0000
   Integrated=    1.0988E+02
 Magnetization (spin up - spin down) [Ha/Bohr^3]
      Maximum=    2.3706E+00  at reduced coord.    0.9800    0.5208    0.0278
      Minimum=   -1.5982E-01  at reduced coord.    0.9333    0.9583    0.4722
   Integrated=    1.7763E+01
 Relative magnetization (=zeta, between -1 and 1)
      Maximum=    3.1306E-01  at reduced coord.    0.8867    0.3611    0.3278
      Minimum=   -6.7557E-02  at reduced coord.    0.9600    0.4583    0.0278
 Total charge density [el/Bohr^3]
      Maximum=    3.0983E+00  at reduced coord.    0.9733    0.5208    0.0333
      Minimum=    1.0753E-03  at reduced coord.    0.9933    0.5000    0.0000
   Integrated=    1.0000E+02
 Spin up density      [el/Bohr^3]
      Maximum=    1.5673E+00  at reduced coord.    0.9467    0.5347    0.4833
      Minimum=    4.9943E-04  at reduced coord.    0.9867    0.0069    0.0056
   Integrated=    5.1958E+01
 Spin down density    [el/Bohr^3]
      Maximum=    1.5497E+00  at reduced coord.    0.9733    0.5208    0.0333
      Minimum=    5.7263E-04  at reduced coord.    0.9933    0.4931    0.0056
   Integrated=    4.8042E+01
 Magnetization (spin up - spin down) [el/Bohr^3]
      Maximum=    4.9331E-01  at reduced coord.    0.0400    0.5486    0.0611
      Minimum=   -6.8990E-03  at reduced coord.    0.0000    0.5278    0.0000
   Integrated=    3.9158E+00
 Relative magnetization (=zeta, between -1 and 1)
      Maximum=    3.5733E-01  at reduced coord.    0.9333    0.4167    0.3944
      Minimum=   -8.0241E-02  at reduced coord.    0.0933    0.5278    0.4778
 ETOT  7  -458.86525400357    -4.51E-02 4.31E-04 1.03E+05 3.916
 scprqt: <Vxc>= -3.8894575E-01 hartree

 Pulay update with  6 previous iterations:
 mixing of old trial potential: alpha(m:m-4)=  0.702      0.653     -0.555     -0.316      0.126
{SCF_istep: 7 , Vnl|psi>: 390 , wall_time: ' 02:34 [minutes] '} <<< TIME

 ITER STEP NUMBER     8
 You should try to get npband*bandpp=   65
 For information matrix size is    99275
 newocc: new Fermi energy is       0.050460 , with nelect=    100.000000, Number of bisection calls: 39
 mkrho: echo density (plane-wave part only)
 Total charge density [el/Bohr^3]
      Maximum=    3.0862E+00  at reduced coord.    0.9400    0.0208    0.4778
      Minimum=    1.0920E-03  at reduced coord.    0.0000    0.0000    0.0000
   Integrated=    1.0000E+02
 Spin up density      [el/Bohr^3]
      Maximum=    1.5763E+00  at reduced coord.    0.9467    0.9653    0.4833
      Minimum=    5.0987E-04  at reduced coord.    0.0000    0.0000    0.0000
   Integrated=    5.2000E+01
 Spin down density    [el/Bohr^3]
      Maximum=    1.5460E+00  at reduced coord.    0.9400    0.0208    0.4778
      Minimum=    5.8209E-04  at reduced coord.    0.0000    0.0000    0.0000
   Integrated=    4.8000E+01
 Magnetization (spin up - spin down) [el/Bohr^3]
      Maximum=    4.9612E-01  at reduced coord.    0.0267    0.5417    0.4611
      Minimum=   -1.0678E-02  at reduced coord.    0.0000    0.5486    0.0000
   Integrated=    3.9997E+00
 Relative magnetization (=zeta, between -1 and 1)
      Maximum=    3.6381E-01  at reduced coord.    0.9333    0.4097    0.3944
      Minimum=   -6.9973E-02  at reduced coord.    0.0333    0.5208    0.4778
 mkrho: echo density (plane-wave part only)
 Total kinetic energy density [Ha/Bohr^3]
      Maximum=    1.9920E+01  at reduced coord.    0.9867    0.9861    0.4944
      Minimum=    7.4093E-04  at reduced coord.    0.0000    0.0000    0.0000
   Integrated=    2.3721E+02
 Spin up density      [Ha/Bohr^3]
      Maximum=    1.0304E+01  at reduced coord.    0.0133    0.9792    0.0000
      Minimum=    3.5104E-04  at reduced coord.    0.0000    0.0000    0.0000
   Integrated=    1.2775E+02
 Spin down density    [Ha/Bohr^3]
      Maximum=    9.8346E+00  at reduced coord.    0.0000    0.0000    0.0000
      Minimum=    3.8989E-04  at reduced coord.    0.0000    0.0000    0.0000
   Integrated=    1.0946E+02
 Magnetization (spin up - spin down) [Ha/Bohr^3]
      Maximum=    2.3519E+00  at reduced coord.    0.9800    0.5208    0.0278
      Minimum=   -2.0370E-01  at reduced coord.    0.9333    0.9583    0.4722
   Integrated=    1.8293E+01
 Relative magnetization (=zeta, between -1 and 1)
      Maximum=    3.1579E-01  at reduced coord.    0.1133    0.6389    0.1667
      Minimum=   -5.6752E-02  at reduced coord.    0.9600    0.4583    0.0278
 Total charge density [el/Bohr^3]
      Maximum=    3.0862E+00  at reduced coord.    0.9400    0.0208    0.4778
      Minimum=    1.0920E-03  at reduced coord.    0.0000    0.0000    0.0000
   Integrated=    1.0000E+02
 Spin up density      [el/Bohr^3]
      Maximum=    1.5763E+00  at reduced coord.    0.9467    0.9653    0.4833
      Minimum=    5.0987E-04  at reduced coord.    0.0000    0.0000    0.0000
   Integrated=    5.2000E+01
 Spin down density    [el/Bohr^3]
      Maximum=    1.5460E+00  at reduced coord.    0.9400    0.0208    0.4778
      Minimum=    5.8209E-04  at reduced coord.    0.0000    0.0000    0.0000
   Integrated=    4.8000E+01
 Magnetization (spin up - spin down) [el/Bohr^3]
      Maximum=    4.9612E-01  at reduced coord.    0.0267    0.5417    0.4611
      Minimum=   -1.0678E-02  at reduced coord.    0.0000    0.5486    0.0000
   Integrated=    3.9997E+00
 Relative magnetization (=zeta, between -1 and 1)
      Maximum=    3.6381E-01  at reduced coord.    0.9333    0.4097    0.3944
      Minimum=   -6.9973E-02  at reduced coord.    0.0333    0.5208    0.4778
 ETOT  8  -458.92629591494    -6.10E-02 4.45E-05 8.20E+04 4.000
 scprqt: <Vxc>= -3.8922740E-01 hartree

 Pulay update with  7 previous iterations:
 mixing of old trial potential: alpha(m:m-4)=   1.16     -0.282      0.314     -0.284     -0.343
{SCF_istep: 8 , Vnl|psi>: 390 , wall_time: ' 02:34 [minutes] '} <<< TIME

 ITER STEP NUMBER     9
 You should try to get npband*bandpp=   65
 For information matrix size is    99275
 newocc: new Fermi energy is       0.051834 , with nelect=    100.000000, Number of bisection calls: 30
 mkrho: echo density (plane-wave part only)
 Total charge density [el/Bohr^3]
      Maximum=    3.0985E+00  at reduced coord.    0.9400    0.4792    0.4778
      Minimum=    1.1101E-03  at reduced coord.    0.0000    0.5000    0.0000
   Integrated=    1.0000E+02
 Spin up density      [el/Bohr^3]
      Maximum=    1.5858E+00  at reduced coord.    0.9467    0.5347    0.4833
      Minimum=    5.1747E-04  at reduced coord.    0.9933    0.0000    0.0000
   Integrated=    5.2000E+01
 Spin down density    [el/Bohr^3]
      Maximum=    1.5551E+00  at reduced coord.    0.9400    0.4792    0.4778
      Minimum=    5.8868E-04  at reduced coord.    0.9933    0.4931    0.0056
   Integrated=    4.8000E+01
 Magnetization (spin up - spin down) [el/Bohr^3]
      Maximum=    5.1203E-01  at reduced coord.    0.9733    0.0417    0.0389
      Minimum=   -1.4792E-02  at reduced coord.    0.0000    0.5486    0.0000
   Integrated=    4.0000E+00
 Relative magnetization (=zeta, between -1 and 1)
      Maximum=    3.6630E-01  at reduced coord.    0.9333    0.0833    0.4000
      Minimum=   -7.1903E-02  at reduced coord.    0.9400    0.0208    0.0056
 mkrho: echo density (plane-wave part only)
 Total kinetic energy density [Ha/Bohr^3]
      Maximum=    1.9914E+01  at reduced coord.    0.0133    0.4861    0.0056
      Minimum=    7.4727E-04  at reduced coord.    0.0000    0.5000    0.0000
   Integrated=    2.3707E+02
 Spin up density      [Ha/Bohr^3]
      Maximum=    1.0341E+01  at reduced coord.    0.0133    0.5208    0.0167
      Minimum=    3.5532E-04  at reduced coord.    0.0000    0.0000    0.0000
   Integrated=    1.2788E+02
 Spin down density    [Ha/Bohr^3]
      Maximum=    9.8646E+00  at reduced coord.    0.0000    0.5000    0.0000
      Minimum=    3.9181E-04  at reduced coord.    0.0000    0.5000    0.0000
   Integrated=    1.0918E+02
 Magnetization (spin up - spin down) [Ha/Bohr^3]
      Maximum=    2.4412E+00  at reduced coord.    0.9800    0.9792    0.0278
      Minimum=   -2.0826E-01  at reduced coord.    0.9333    0.9583    0.4722
   Integrated=    1.8699E+01
 Relative magnetization (=zeta, between -1 and 1)
      Maximum=    3.1715E-01  at reduced coord.    0.8867    0.3611    0.3333
      Minimum=   -5.7859E-02  at reduced coord.    0.0267    0.9861    0.4778
 Total charge density [el/Bohr^3]
      Maximum=    3.0985E+00  at reduced coord.    0.9400    0.4792    0.4778
      Minimum=    1.1101E-03  at reduced coord.    0.0000    0.5000    0.0000
   Integrated=    1.0000E+02
 Spin up density      [el/Bohr^3]
      Maximum=    1.5858E+00  at reduced coord.    0.9467    0.5347    0.4833
      Minimum=    5.1747E-04  at reduced coord.    0.9933    0.0000    0.0000
   Integrated=    5.2000E+01
 Spin down density    [el/Bohr^3]
      Maximum=    1.5551E+00  at reduced coord.    0.9400    0.4792    0.4778
      Minimum=    5.8868E-04  at reduced coord.    0.9933    0.4931    0.0056
   Integrated=    4.8000E+01
 Magnetization (spin up - spin down) [el/Bohr^3]
      Maximum=    5.1203E-01  at reduced coord.    0.9733    0.0417    0.0389
      Minimum=   -1.4792E-02  at reduced coord.    0.0000    0.5486    0.0000
   Integrated=    4.0000E+00
 Relative magnetization (=zeta, between -1 and 1)
      Maximum=    3.6630E-01  at reduced coord.    0.9333    0.0833    0.4000
      Minimum=   -7.1903E-02  at reduced coord.    0.9400    0.0208    0.0056
 ETOT  9  -458.95627919764    -3.00E-02 1.24E-04 6.31E+04 4.000
 scprqt: <Vxc>= -3.8942820E-01 hartree

 Pulay update with  7 previous iterations:
 mixing of old trial potential: alpha(m:m-4)=   1.68      0.454E-01 -0.367      0.927E-01  0.352
{SCF_istep: 9 , Vnl|psi>: 390 , wall_time: ' 02:34 [minutes] '} <<< TIME

 ITER STEP NUMBER    10
 You should try to get npband*bandpp=   65
 For information matrix size is    99275
 newocc: new Fermi energy is       0.078820 , with nelect=    100.000000, Number of bisection calls: 7
 mkrho: echo density (plane-wave part only)
 Total charge density [el/Bohr^3]
      Maximum=    3.0807E+00  at reduced coord.    0.0600    0.5208    0.0222
      Minimum=    1.1031E-03  at reduced coord.    0.0000    0.0000    0.0000
   Integrated=    1.0000E+02
 Spin up density      [el/Bohr^3]
      Maximum=    1.5913E+00  at reduced coord.    0.9467    0.5347    0.4833
      Minimum=    5.3577E-04  at reduced coord.    0.9933    0.0000    0.0000
   Integrated=    5.2000E+01
 Spin down density    [el/Bohr^3]
      Maximum=    1.5492E+00  at reduced coord.    0.0600    0.9792    0.0222
      Minimum=    5.6703E-04  at reduced coord.    0.0000    0.0000    0.0000
   Integrated=    4.8000E+01
 Magnetization (spin up - spin down) [el/Bohr^3]
      Maximum=    6.3437E-01  at reduced coord.    0.0267    0.5417    0.4611
      Minimum=   -2.3157E-02  at reduced coord.    0.9800    0.9792    0.0278
   Integrated=    4.0000E+00
 Relative magnetization (=zeta, between -1 and 1)
      Maximum=    4.9914E-01  at reduced coord.    0.9267    0.4097    0.3889
      Minimum=   -4.9816E-02  at reduced coord.    0.0600    0.5278    0.4778
 mkrho: echo density (plane-wave part only)
 Total kinetic energy density [Ha/Bohr^3]
      Maximum=    1.9639E+01  at reduced coord.    0.9867    0.9861    0.4944
      Minimum=    7.5860E-04  at reduced coord.    0.0000    0.0000    0.0000
   Integrated=    2.3520E+02
 Spin up density      [Ha/Bohr^3]
      Maximum=    1.0261E+01  at reduced coord.    0.0200    0.5208    0.0111
      Minimum=    3.6384E-04  at reduced coord.    0.0000    0.0000    0.0000
   Integrated=    1.2777E+02
 Spin down density    [Ha/Bohr^3]
      Maximum=    9.8278E+00  at reduced coord.    0.0000    0.0000    0.0000
      Minimum=    3.9476E-04  at reduced coord.    0.0000    0.0000    0.0000
   Integrated=    1.0743E+02
 Magnetization (spin up - spin down) [Ha/Bohr^3]
      Maximum=    2.9032E+00  at reduced coord.    0.0200    0.4792    0.4722
      Minimum=   -2.4978E-01  at reduced coord.    0.0000    0.5000    0.0000
   Integrated=    2.0341E+01
 Relative magnetization (=zeta, between -1 and 1)
      Maximum=    3.2818E-01  at reduced coord.    0.1000    0.8750    0.1500
      Minimum=   -5.3740E-02  at reduced coord.    0.9733    0.4861    0.0111
 Total charge density [el/Bohr^3]
      Maximum=    3.0807E+00  at reduced coord.    0.0600    0.5208    0.0222
      Minimum=    1.1031E-03  at reduced coord.    0.0000    0.0000    0.0000
   Integrated=    1.0000E+02
 Spin up density      [el/Bohr^3]
      Maximum=    1.5913E+00  at reduced coord.    0.9467    0.5347    0.4833
      Minimum=    5.3577E-04  at reduced coord.    0.9933    0.0000    0.0000
   Integrated=    5.2000E+01
 Spin down density    [el/Bohr^3]
      Maximum=    1.5492E+00  at reduced coord.    0.0600    0.9792    0.0222
      Minimum=    5.6703E-04  at reduced coord.    0.0000    0.0000    0.0000
   Integrated=    4.8000E+01
 Magnetization (spin up - spin down) [el/Bohr^3]
      Maximum=    6.3437E-01  at reduced coord.    0.0267    0.5417    0.4611
      Minimum=   -2.3157E-02  at reduced coord.    0.9800    0.9792    0.0278
   Integrated=    4.0000E+00
 Relative magnetization (=zeta, between -1 and 1)
      Maximum=    4.9914E-01  at reduced coord.    0.9267    0.4097    0.3889
      Minimum=   -4.9816E-02  at reduced coord.    0.0600    0.5278    0.4778
 ETOT 10  -459.07017592028    -1.14E-01 3.88E-04 3.17E+04 4.000
 scprqt: <Vxc>= -3.8980984E-01 hartree

 Pulay update with  7 previous iterations:
 mixing of old trial potential: alpha(m:m-4)=  0.643      0.298      0.312E-01  0.386E-01  0.442
{SCF_istep: 10 , Vnl|psi>: 390 , wall_time: ' 02:34 [minutes] '} <<< TIME

 ITER STEP NUMBER    11
 You should try to get npband*bandpp=   65
 For information matrix size is    99275
 newocc: new Fermi energy is       0.076518 , with nelect=    100.000000, Number of bisection calls: 7
 mkrho: echo density (plane-wave part only)
 Total charge density [el/Bohr^3]
      Maximum=    3.0767E+00  at reduced coord.    0.9400    0.0208    0.4778
      Minimum=    1.1211E-03  at reduced coord.    0.0000    0.5000    0.0000
   Integrated=    1.0000E+02
 Spin up density      [el/Bohr^3]
      Maximum=    1.5896E+00  at reduced coord.    0.9467    0.9653    0.4833
      Minimum=    5.4313E-04  at reduced coord.    0.0000    0.5000    0.0000
   Integrated=    5.2000E+01
 Spin down density    [el/Bohr^3]
      Maximum=    1.5481E+00  at reduced coord.    0.9400    0.0208    0.4778
      Minimum=    5.7781E-04  at reduced coord.    0.0000    0.0000    0.0000
   Integrated=    4.8000E+01
 Magnetization (spin up - spin down) [el/Bohr^3]
      Maximum=    6.3551E-01  at reduced coord.    0.0267    0.5417    0.4611
      Minimum=   -2.3467E-02  at reduced coord.    0.9800    0.9792    0.0278
   Integrated=    4.0000E+00
 Relative magnetization (=zeta, between -1 and 1)
      Maximum=    5.0204E-01  at reduced coord.    0.9267    0.4097    0.3889
      Minimum=   -3.5561E-02  at reduced coord.    0.1800    0.0278    0.3556
 mkrho: echo density (plane-wave part only)
 Total kinetic energy density [Ha/Bohr^3]
      Maximum=    1.9633E+01  at reduced coord.    0.0067    0.9861    0.0111
      Minimum=    7.5272E-04  at reduced coord.    0.0000    0.0000    0.0000
   Integrated=    2.3553E+02
 Spin up density      [Ha/Bohr^3]
      Maximum=    1.0255E+01  at reduced coord.    0.0133    0.9792    0.0167
      Minimum=    3.6593E-04  at reduced coord.    0.0000    0.0000    0.0000
   Integrated=    1.2779E+02
 Spin down density    [Ha/Bohr^3]
      Maximum=    9.8186E+00  at reduced coord.    0.0000    0.0000    0.0000
      Minimum=    3.8680E-04  at reduced coord.    0.0000    0.0000    0.0000
   Integrated=    1.0774E+02
 Magnetization (spin up - spin down) [Ha/Bohr^3]
      Maximum=    2.8813E+00  at reduced coord.    0.0200    0.0208    0.4722
      Minimum=   -2.2833E-01  at reduced coord.    0.0000    0.5000    0.0000
   Integrated=    2.0053E+01
 Relative magnetization (=zeta, between -1 and 1)
      Maximum=    3.2349E-01  at reduced coord.    0.9000    0.1250    0.3500
      Minimum=   -3.1431E-02  at reduced coord.    0.9933    0.4028    0.0389
 Total charge density [el/Bohr^3]
      Maximum=    3.0767E+00  at reduced coord.    0.9400    0.0208    0.4778
      Minimum=    1.1211E-03  at reduced coord.    0.0000    0.5000    0.0000
   Integrated=    1.0000E+02
 Spin up density      [el/Bohr^3]
      Maximum=    1.5896E+00  at reduced coord.    0.9467    0.9653    0.4833
      Minimum=    5.4313E-04  at reduced coord.    0.0000    0.5000    0.0000
   Integrated=    5.2000E+01
 Spin down density    [el/Bohr^3]
      Maximum=    1.5481E+00  at reduced coord.    0.9400    0.0208    0.4778
      Minimum=    5.7781E-04  at reduced coord.    0.0000    0.0000    0.0000
   Integrated=    4.8000E+01
 Magnetization (spin up - spin down) [el/Bohr^3]
      Maximum=    6.3551E-01  at reduced coord.    0.0267    0.5417    0.4611
      Minimum=   -2.3467E-02  at reduced coord.    0.9800    0.9792    0.0278
   Integrated=    4.0000E+00
 Relative magnetization (=zeta, between -1 and 1)
      Maximum=    5.0204E-01  at reduced coord.    0.9267    0.4097    0.3889
      Minimum=   -3.5561E-02  at reduced coord.    0.1800    0.0278    0.3556
 ETOT 11  -459.08803807401    -1.79E-02 5.14E-05 2.11E+04 4.000
 scprqt: <Vxc>= -3.8939536E-01 hartree

 Pulay update with  7 previous iterations:
 mixing of old trial potential: alpha(m:m-4)=   1.10     -0.290      0.453E-01 -0.622E-01 -0.271E-02
{SCF_istep: 11 , Vnl|psi>: 390 , wall_time: ' 02:33 [minutes] '} <<< TIME

 ITER STEP NUMBER    12
 You should try to get npband*bandpp=   65
 For information matrix size is    99275
 newocc: new Fermi energy is       0.076530 , with nelect=    100.000000, Number of bisection calls: 7
 mkrho: echo density (plane-wave part only)
 Total charge density [el/Bohr^3]
      Maximum=    3.0735E+00  at reduced coord.    0.0600    0.9792    0.0222
      Minimum=    1.1185E-03  at reduced coord.    0.0000    0.0000    0.0000
   Integrated=    1.0000E+02
 Spin up density      [el/Bohr^3]
      Maximum=    1.5918E+00  at reduced coord.    0.9467    0.5347    0.4833
      Minimum=    5.4364E-04  at reduced coord.    0.0000    0.0000    0.0000
   Integrated=    5.2000E+01
 Spin down density    [el/Bohr^3]
      Maximum=    1.5466E+00  at reduced coord.    0.9400    0.0208    0.4778
      Minimum=    5.7485E-04  at reduced coord.    0.0000    0.0000    0.0000
   Integrated=    4.8000E+01
 Magnetization (spin up - spin down) [el/Bohr^3]
      Maximum=    6.3917E-01  at reduced coord.    0.0267    0.5417    0.4611
      Minimum=   -2.3331E-02  at reduced coord.    0.9800    0.9792    0.0278
   Integrated=    4.0000E+00
 Relative magnetization (=zeta, between -1 and 1)
      Maximum=    5.0358E-01  at reduced coord.    0.9267    0.4097    0.3889
      Minimum=   -3.0862E-02  at reduced coord.    0.1933    0.0347    0.3556
 mkrho: echo density (plane-wave part only)
 Total kinetic energy density [Ha/Bohr^3]
      Maximum=    1.9612E+01  at reduced coord.    0.9867    0.9861    0.4944
      Minimum=    7.5504E-04  at reduced coord.    0.0000    0.5000    0.0000
   Integrated=    2.3542E+02
 Spin up density      [Ha/Bohr^3]
      Maximum=    1.0237E+01  at reduced coord.    0.0133    0.9792    0.0167
      Minimum=    3.6708E-04  at reduced coord.    0.0000    0.5000    0.0000
   Integrated=    1.2771E+02
 Spin down density    [Ha/Bohr^3]
      Maximum=    9.8206E+00  at reduced coord.    0.0000    0.5000    0.0000
      Minimum=    3.8792E-04  at reduced coord.    0.0000    0.0000    0.0000
   Integrated=    1.0771E+02
 Magnetization (spin up - spin down) [Ha/Bohr^3]
      Maximum=    2.9082E+00  at reduced coord.    0.0200    0.4792    0.4722
      Minimum=   -2.3496E-01  at reduced coord.    0.0000    0.5000    0.0000
   Integrated=    1.9992E+01
 Relative magnetization (=zeta, between -1 and 1)
      Maximum=    3.2318E-01  at reduced coord.    0.9000    0.1250    0.3500
      Minimum=   -3.0637E-02  at reduced coord.    0.9800    0.4583    0.0222
 Total charge density [el/Bohr^3]
      Maximum=    3.0735E+00  at reduced coord.    0.0600    0.9792    0.0222
      Minimum=    1.1185E-03  at reduced coord.    0.0000    0.0000    0.0000
   Integrated=    1.0000E+02
 Spin up density      [el/Bohr^3]
      Maximum=    1.5918E+00  at reduced coord.    0.9467    0.5347    0.4833
      Minimum=    5.4364E-04  at reduced coord.    0.0000    0.0000    0.0000
   Integrated=    5.2000E+01
 Spin down density    [el/Bohr^3]
      Maximum=    1.5466E+00  at reduced coord.    0.9400    0.0208    0.4778
      Minimum=    5.7485E-04  at reduced coord.    0.0000    0.0000    0.0000
   Integrated=    4.8000E+01
 Magnetization (spin up - spin down) [el/Bohr^3]
      Maximum=    6.3917E-01  at reduced coord.    0.0267    0.5417    0.4611
      Minimum=   -2.3331E-02  at reduced coord.    0.9800    0.9792    0.0278
   Integrated=    4.0000E+00
 Relative magnetization (=zeta, between -1 and 1)
      Maximum=    5.0358E-01  at reduced coord.    0.9267    0.4097    0.3889
      Minimum=   -3.0862E-02  at reduced coord.    0.1933    0.0347    0.3556
 ETOT 12  -459.08947882040    -1.44E-03 4.66E-05 1.41E+04 4.000
 scprqt: <Vxc>= -3.8951248E-01 hartree

 Pulay update with  7 previous iterations:
 mixing of old trial potential: alpha(m:m-4)=   2.79     -0.942     -0.655     -0.360     -0.484
{SCF_istep: 12 , Vnl|psi>: 390 , wall_time: ' 02:34 [minutes] '} <<< TIME

 ITER STEP NUMBER    13
 You should try to get npband*bandpp=   65
 For information matrix size is    99275
 newocc: new Fermi energy is       0.075479 , with nelect=    100.000000, Number of bisection calls: 7
 mkrho: echo density (plane-wave part only)
 Total charge density [el/Bohr^3]
      Maximum=    3.0609E+00  at reduced coord.    0.9400    0.0208    0.4778
      Minimum=    1.1130E-03  at reduced coord.    0.0000    0.5000    0.0000
   Integrated=    1.0000E+02
 Spin up density      [el/Bohr^3]
      Maximum=    1.5886E+00  at reduced coord.    0.9467    0.9653    0.4833
      Minimum=    5.4613E-04  at reduced coord.    0.0000    0.5000    0.0000
   Integrated=    5.2000E+01
 Spin down density    [el/Bohr^3]
      Maximum=    1.5398E+00  at reduced coord.    0.9400    0.4792    0.4778
      Minimum=    5.6668E-04  at reduced coord.    0.9933    0.5000    0.0000
   Integrated=    4.8000E+01
 Magnetization (spin up - spin down) [el/Bohr^3]
      Maximum=    6.4230E-01  at reduced coord.    0.0267    0.5417    0.4611
      Minimum=   -2.5313E-02  at reduced coord.    0.0200    0.4792    0.4722
   Integrated=    4.0000E+00
[...]
                      -2.8649310236E-02 -4.6475167564E-02 -1.3554226865E-02
                      -2.8638585896E-02  4.6484768679E-02  1.3547526025E-02
                       2.8650138689E-02  4.6480785409E-02  1.3554707249E-02
                       2.8637309175E-02 -4.6481667331E-02 -1.3546125300E-02
-          fftalg         312
              ixc     -263267
              kpt      2.50000000E-01  2.50000000E-01  2.50000000E-01
                      -2.50000000E-01  2.50000000E-01  2.50000000E-01
                       2.50000000E-01 -2.50000000E-01  2.50000000E-01
                      -2.50000000E-01 -2.50000000E-01  2.50000000E-01
         kptrlatt        2    0    0      0    2    0      0    0    2
          kptrlen      1.98019629E+01
P           mkmem           1
            natom          14
            nband          65
            ngfft         150     144     180
             nkpt           4
-           npfft           2
-        np_spkpt           8
           nspden           2
           nsppol           2
            nstep          60
             nsym           1
           ntypat           3
              occ      1.000000  1.000000  1.000000  1.000000  1.000000  1.000000
                       1.000000  1.000000  1.000000  1.000000  1.000000  1.000000
                       1.000000  1.000000  1.000000  1.000000  1.000000  1.000000
                       1.000000  1.000000  1.000000  1.000000  1.000000  1.000000
                       1.000000  1.000000  1.000000  1.000000  1.000000  1.000000
                       1.000000  1.000000  1.000000  1.000000  1.000000  1.000000
                       1.000000  1.000000  1.000000  1.000000  1.000000  1.000000
                       1.000000  1.000000  1.000000  1.000000  1.000000  1.000000
                       1.000000  1.000000  1.000000  1.000000  0.000000  0.000000
                       0.000000  0.000000  0.000000  0.000000  0.000000  0.000000
                       0.000000  0.000000  0.000000  0.000000  0.000000
                       1.000000  1.000000  1.000000  1.000000  1.000000  1.000000
                       1.000000  1.000000  1.000000  1.000000  1.000000  1.000000
                       1.000000  1.000000  1.000000  1.000000  1.000000  1.000000
                       1.000000  1.000000  1.000000  1.000000  1.000000  1.000000
                       1.000000  1.000000  1.000000  1.000000  1.000000  1.000000
                       1.000000  1.000000  1.000000  1.000000  1.000000  1.000000
                       1.000000  1.000000  1.000000  1.000000  1.000000  1.000000
                       1.000000  1.000000  1.000000  1.000000  1.000000  1.000000
                       1.000000  1.000000  1.000000  1.000000  0.000000  0.000000
                       0.000000  0.000000  0.000000  0.000000  0.000000  0.000000
                       0.000000  0.000000  0.000000  0.000000  0.000000
                       1.000000  1.000000  1.000000  1.000000  1.000000  1.000000
                       1.000000  1.000000  1.000000  1.000000  1.000000  1.000000
                       1.000000  1.000000  1.000000  1.000000  1.000000  1.000000
                       1.000000  1.000000  1.000000  1.000000  1.000000  1.000000
                       1.000000  1.000000  1.000000  1.000000  1.000000  1.000000
                       1.000000  1.000000  1.000000  1.000000  1.000000  1.000000
                       1.000000  1.000000  1.000000  1.000000  1.000000  1.000000
                       1.000000  1.000000  1.000000  1.000000  1.000000  1.000000
                       1.000000  1.000000  1.000000  1.000000  0.000000  0.000000
                       0.000000  0.000000  0.000000  0.000000  0.000000  0.000000
                       0.000000  0.000000  0.000000  0.000000  0.000000
                       1.000000  1.000000  1.000000  1.000000  1.000000  1.000000
                       1.000000  1.000000  1.000000  1.000000  1.000000  1.000000
                       1.000000  1.000000  1.000000  1.000000  1.000000  1.000000
                       1.000000  1.000000  1.000000  1.000000  1.000000  1.000000
                       1.000000  1.000000  1.000000  1.000000  1.000000  1.000000
                       1.000000  1.000000  1.000000  1.000000  1.000000  1.000000
                       1.000000  1.000000  1.000000  1.000000  1.000000  1.000000
                       1.000000  1.000000  1.000000  1.000000  1.000000  1.000000
                       1.000000  1.000000  1.000000  1.000000  0.000000  0.000000
                       0.000000  0.000000  0.000000  0.000000  0.000000  0.000000
                       0.000000  0.000000  0.000000  0.000000  0.000000
                       1.000000  1.000000  1.000000  1.000000  1.000000  1.000000
                       1.000000  1.000000  1.000000  1.000000  1.000000  1.000000
                       1.000000  1.000000  1.000000  1.000000  1.000000  1.000000
                       1.000000  1.000000  1.000000  1.000000  1.000000  1.000000
                       1.000000  1.000000  1.000000  1.000000  1.000000  1.000000
                       1.000000  1.000000  1.000000  1.000000  1.000000  1.000000
                       1.000000  1.000000  1.000000  1.000000  1.000000  1.000000
                       1.000000  1.000000  1.000000  1.000000  1.000000  1.000000
                       0.000000  0.000000  0.000000  0.000000  0.000000  0.000000
                       0.000000  0.000000  0.000000  0.000000  0.000000  0.000000
                       0.000000  0.000000  0.000000  0.000000  0.000000
                       1.000000  1.000000  1.000000  1.000000  1.000000  1.000000
                       1.000000  1.000000  1.000000  1.000000  1.000000  1.000000
                       1.000000  1.000000  1.000000  1.000000  1.000000  1.000000
                       1.000000  1.000000  1.000000  1.000000  1.000000  1.000000
                       1.000000  1.000000  1.000000  1.000000  1.000000  1.000000
                       1.000000  1.000000  1.000000  1.000000  1.000000  1.000000
                       1.000000  1.000000  1.000000  1.000000  1.000000  1.000000
                       1.000000  1.000000  1.000000  1.000000  1.000000  1.000000
                       0.000000  0.000000  0.000000  0.000000  0.000000  0.000000
                       0.000000  0.000000  0.000000  0.000000  0.000000  0.000000
                       0.000000  0.000000  0.000000  0.000000  0.000000
                       1.000000  1.000000  1.000000  1.000000  1.000000  1.000000
                       1.000000  1.000000  1.000000  1.000000  1.000000  1.000000
                       1.000000  1.000000  1.000000  1.000000  1.000000  1.000000
                       1.000000  1.000000  1.000000  1.000000  1.000000  1.000000
                       1.000000  1.000000  1.000000  1.000000  1.000000  1.000000
                       1.000000  1.000000  1.000000  1.000000  1.000000  1.000000
                       1.000000  1.000000  1.000000  1.000000  1.000000  1.000000
                       1.000000  1.000000  1.000000  1.000000  1.000000  1.000000
                       0.000000  0.000000  0.000000  0.000000  0.000000  0.000000
                       0.000000  0.000000  0.000000  0.000000  0.000000  0.000000
                       0.000000  0.000000  0.000000  0.000000  0.000000
                       1.000000  1.000000  1.000000  1.000000  1.000000  1.000000
                       1.000000  1.000000  1.000000  1.000000  1.000000  1.000000
                       1.000000  1.000000  1.000000  1.000000  1.000000  1.000000
                       1.000000  1.000000  1.000000  1.000000  1.000000  1.000000
                       1.000000  1.000000  1.000000  1.000000  1.000000  1.000000
                       1.000000  1.000000  1.000000  1.000000  1.000000  1.000000
                       1.000000  1.000000  1.000000  1.000000  1.000000  1.000000
                       1.000000  1.000000  1.000000  1.000000  1.000000  1.000000
                       0.000000  0.000000  0.000000  0.000000  0.000000  0.000000
                       0.000000  0.000000  0.000000  0.000000  0.000000  0.000000
                       0.000000  0.000000  0.000000  0.000000  0.000000
           occopt           3
           ortalg          -2
        paral_kgb           1
           prtden           0
           prteig           0
          prtkden           1
            prtwf           0
            rprim      0.0000000000E+00  1.0137047334E+01  0.0000000000E+00
                       9.6126033568E+00  0.0000000000E+00  0.0000000000E+00
                       0.0000000000E+00 -5.7455806104E+00 -9.8776109362E+00
           shiftk      5.00000000E-01  5.00000000E-01  5.00000000E-01
          spgroup           1
           spinat      0.0000000000E+00  0.0000000000E+00  1.0000000000E+00
                       0.0000000000E+00  0.0000000000E+00  1.0000000000E+00
                       0.0000000000E+00  0.0000000000E+00  1.0000000000E+00
                       0.0000000000E+00  0.0000000000E+00  1.0000000000E+00
                       0.0000000000E+00  0.0000000000E+00  1.0000000000E+00
                       0.0000000000E+00  0.0000000000E+00  1.0000000000E+00
                       0.0000000000E+00  0.0000000000E+00  1.0000000000E+00
                       0.0000000000E+00  0.0000000000E+00  1.0000000000E+00
                       0.0000000000E+00  0.0000000000E+00  1.0000000000E+00
                       0.0000000000E+00  0.0000000000E+00  1.0000000000E+00
                       0.0000000000E+00  0.0000000000E+00  1.0000000000E+00
                       0.0000000000E+00  0.0000000000E+00  1.0000000000E+00
                       0.0000000000E+00  0.0000000000E+00  1.0000000000E+00
                       0.0000000000E+00  0.0000000000E+00  1.0000000000E+00
           strten      1.2282589936E-02  1.2725997071E-02  1.2178320598E-02
                      -6.2141499371E-05  7.4239772077E-08 -5.0713289438E-08
           toldfe      1.00000000E-06 Hartree
           tsmear      1.00000000E-03 Hartree
            typat      1  1  2  2  2  2  3  3  3  3  3  3  3  3
          usekden           1
         wfoptalg         114
              wtk        0.25000    0.25000    0.25000    0.25000
           xangst      2.6196868650E+00 -1.5658216092E+00 -2.6919083901E+00
                       0.0000000000E+00  0.0000000000E+00  0.0000000000E+00
                       3.2509632876E+00  1.2267492226E+00 -2.2118280640E+00
                       6.3127642260E-01  2.7326524121E+00 -4.8008032611E-01
                       1.9884104424E+00  1.1668308028E+00 -3.1719887162E+00
                       4.6080973074E+00 -3.3907238659E-01 -4.9037364541E+00
                       1.5327997422E+00  2.3016083960E+00 -3.6532319468E+00
                       4.1524866072E+00 -1.4738499797E+00 -4.4224932236E+00
                       3.7065739878E+00  9.1971629504E-02 -1.7305848335E+00
                       1.0868871228E+00  3.8674300052E+00 -9.6132355665E-01
                       3.7496940336E+00  2.4025084969E+00 -1.9719790265E+00
                       1.1300071686E+00  1.5568931377E+00 -7.1992936367E-01
                       1.4896796964E+00 -8.9284714847E-03 -3.4118377538E+00
                       4.1093665614E+00  8.3668688773E-01 -4.6638874166E+00
            xcart      4.9504907287E+00 -2.9589740144E+00 -5.0869696322E+00
                       0.0000000000E+00  0.0000000000E+00  0.0000000000E+00
                       6.1434302816E+00  2.3182200645E+00 -4.1797492940E+00
                       1.1929395529E+00  5.1639646751E+00 -9.0722033814E-01
                       3.7575511759E+00  2.2049906608E+00 -5.9941899703E+00
                       8.7080419046E+00 -6.4075394989E-01 -9.2667189262E+00
                       2.8965717293E+00  4.3494095335E+00 -6.9036078793E+00
                       7.8470624580E+00 -2.7851728226E+00 -8.3573010172E+00
                       7.0044097282E+00  1.7380119176E-01 -3.2703313850E+00
                       2.0539189994E+00  7.3083835479E+00 -1.8166382472E+00
                       7.0858948055E+00  4.5400830912E+00 -3.7265002998E+00
                       2.1354040768E+00  2.9421016485E+00 -1.3604693324E+00
                       2.8150866519E+00 -1.6872365891E-02 -6.4474389645E+00
                       7.7655773806E+00  1.5811090768E+00 -8.8134699320E+00
             xred     -3.0692094551E-18  5.0000000000E-01  5.0000000000E-01
                       0.0000000000E+00  0.0000000000E+00  0.0000000000E+00
                       4.5488100000E-01  6.2048700000E-01  4.1082900000E-01
                       5.4511900000E-01  1.2048700000E-01  8.9171000000E-02
                       5.4511900000E-01  3.7951300000E-01  5.8917100000E-01
                       4.5488100000E-01  8.7951300000E-01  9.1082900000E-01
                       8.0116400000E-01  2.9255400000E-01  6.7855800000E-01
                       1.9883600000E-01  7.9255400000E-01  8.2144200000E-01
                       1.9883600000E-01  7.0744600000E-01  3.2144200000E-01
                       8.0116400000E-01  2.0744600000E-01  1.7855800000E-01
                       6.4242900000E-01  7.1567600000E-01  3.6627900000E-01
                       3.5757100000E-01  2.1567600000E-01  1.3372100000E-01
                       3.5757100000E-01  2.8432400000E-01  6.3372100000E-01
                       6.4242900000E-01  7.8432400000E-01  8.6627900000E-01
            znucl       28.00000    6.00000    8.00000

================================================================================
  

================================================================================

 Suggested references for the acknowledgment of ABINIT usage.

 The users of ABINIT have little formal obligations with respect to the ABINIT group
 (those specified in the GNU General Public License, http://www.gnu.org/copyleft/gpl.txt).
 However, it is common practice in the scientific literature,
 to acknowledge the efforts of people that have made the research possible.
 In this spirit, please find below suggested citations of work written by ABINIT developers,
 corresponding to implementations inside of ABINIT that you have used in the present run.
 Note also that it will be of great value to readers of publications presenting these results,
 to read papers enabling them to understand the theoretical formalism and details
 of the ABINIT implementation.
 For information on why they are suggested, see also https://docs.abinit.org/theory/acknowledgments.
-
- [1] Libxc: A library of exchange and correlation functionals for density functional theory.
- M.A.L. Marques, M.J.T. Oliveira, T. Burnus, Computer Physics Communications 183, 2227 (2012).
- Comment: to be cited when LibXC is used (negative value of ixc)
- Strong suggestion to cite this paper.
- DOI and bibtex: see https://docs.abinit.org/theory/bibliography/#marques2012
-
- [2] Large scale ab initio calculations based on three levels of parallelization
- F. Bottin, S. Leroux, A. Knyazev, G. Zerah, Comput. Mat. Science 42, 329, (2008).
- Comment: in case LOBPCG algorithm is used (wfoptalg=4/14/114).
- Strong suggestion to cite this paper in your publications.
- This paper is also available at http://www.arxiv.org/abs/0707.3405
- DOI and bibtex: see https://docs.abinit.org/theory/bibliography/#bottin2008
-
- [3] The Abinit project: Impact, environment and recent developments.
- Computer Phys. Comm. 248, 107042 (2020).
- X.Gonze, B. Amadon, G. Antonius, F.Arnardi, L.Baguet, J.-M.Beuken,
- J.Bieder, F.Bottin, J.Bouchet, E.Bousquet, N.Brouwer, F.Bruneval,
- G.Brunin, T.Cavignac, J.-B. Charraud, Wei Chen, M.Cote, S.Cottenier,
- J.Denier, G.Geneste, Ph.Ghosez, M.Giantomassi, Y.Gillet, O.Gingras,
- D.R.Hamann, G.Hautier, Xu He, N.Helbig, N.Holzwarth, Y.Jia, F.Jollet,
- W.Lafargue-Dit-Hauret, K.Lejaeghere, M.A.L.Marques, A.Martin, C.Martins,
- H.P.C. Miranda, F.Naccarato, K. Persson, G.Petretto, V.Planes, Y.Pouillon,
- S.Prokhorenko, F.Ricci, G.-M.Rignanese, A.H.Romero, M.M.Schmitt, M.Torrent,
- M.J.van Setten, B.Van Troeye, M.J.Verstraete, G.Zerah and J.W.Zwanzig
- Comment: the fifth generic paper describing the ABINIT project.
- Note that a version of this paper, that is not formatted for Computer Phys. Comm. 
- is available at https://www.abinit.org/sites/default/files/ABINIT20.pdf .
- The licence allows the authors to put it on the Web.
- DOI and bibtex: see https://docs.abinit.org/theory/bibliography/#gonze2020
-
- [4] Optimized norm-conserving Vanderbilt pseudopotentials.
- D.R. Hamann, Phys. Rev. B 88, 085117 (2013).
- Comment: Some pseudopotential generated using the ONCVPSP code were used.
- DOI and bibtex: see https://docs.abinit.org/theory/bibliography/#hamann2013
-
- [5] ABINIT: Overview, and focus on selected capabilities
- J. Chem. Phys. 152, 124102 (2020).
- A. Romero, D.C. Allan, B. Amadon, G. Antonius, T. Applencourt, L.Baguet,
- J.Bieder, F.Bottin, J.Bouchet, E.Bousquet, F.Bruneval,
- G.Brunin, D.Caliste, M.Cote,
- J.Denier, C. Dreyer, Ph.Ghosez, M.Giantomassi, Y.Gillet, O.Gingras,
- D.R.Hamann, G.Hautier, F.Jollet, G. Jomard,
- A.Martin, 
- H.P.C. Miranda, F.Naccarato, G.Petretto, N.A. Pike, V.Planes,
- S.Prokhorenko, T. Rangel, F.Ricci, G.-M.Rignanese, M.Royo, M.Stengel, M.Torrent,
- M.J.van Setten, B.Van Troeye, M.J.Verstraete, J.Wiktor, J.W.Zwanziger, and X.Gonze.
- Comment: a global overview of ABINIT, with focus on selected capabilities .
- Note that a version of this paper, that is not formatted for J. Chem. Phys 
- is available at https://www.abinit.org/sites/default/files/ABINIT20_JPC.pdf .
- The licence allows the authors to put it on the Web.
- DOI and bibtex: see https://docs.abinit.org/theory/bibliography/#romero2020
-
- [6] Recent developments in the ABINIT software package.
- Computer Phys. Comm. 205, 106 (2016).
- X.Gonze, F.Jollet, F.Abreu Araujo, D.Adams, B.Amadon, T.Applencourt,
- C.Audouze, J.-M.Beuken, J.Bieder, A.Bokhanchuk, E.Bousquet, F.Bruneval
- D.Caliste, M.Cote, F.Dahm, F.Da Pieve, M.Delaveau, M.Di Gennaro,
- B.Dorado, C.Espejo, G.Geneste, L.Genovese, A.Gerossier, M.Giantomassi,
- Y.Gillet, D.R.Hamann, L.He, G.Jomard, J.Laflamme Janssen, S.Le Roux,
- A.Levitt, A.Lherbier, F.Liu, I.Lukacevic, A.Martin, C.Martins,
- M.J.T.Oliveira, S.Ponce, Y.Pouillon, T.Rangel, G.-M.Rignanese,
- A.H.Romero, B.Rousseau, O.Rubel, A.A.Shukri, M.Stankovski, M.Torrent,
- M.J.Van Setten, B.Van Troeye, M.J.Verstraete, D.Waroquier, J.Wiktor,
- B.Xu, A.Zhou, J.W.Zwanziger.
- Comment: the fourth generic paper describing the ABINIT project.
- Note that a version of this paper, that is not formatted for Computer Phys. Comm. 
- is available at https://www.abinit.org/sites/default/files/ABINIT16.pdf .
- The licence allows the authors to put it on the Web.
- DOI and bibtex: see https://docs.abinit.org/theory/bibliography/#gonze2016
 Proc.   0 individual time (sec): cpu=       4608.9  wall=       4621.3

 Calculation completed.
.Delivered   0 WARNINGs and   0 COMMENTs to log file.

--- !FinalSummary
program: abinit
version: 9.6.2
start_datetime: Fri Jan 06 17:24:58 2023
end_datetime: Fri Jan 06 18:41:59 2023
overall_cpu_time:       73758.3
overall_wall_time:       73939.9
exit_requested_by_user: no 
timelimit: 0
pseudos: 
    Ni  : 6ed2f4ef33f542dbb8bccaf193f9ee1b
    C   : 0671db42fbc6781d44a36978545fd691
    O   : ec29db0878725605673bf3262559bcee
usepaw: 0
mpi_procs: 16
omp_threads: 1
num_warnings: 0
num_comments: 0
...
---------------------------------------
Begin Slurm Epilog: Jan-06-2023 18:41:59
Job ID:        415112
Array Job ID:  _4294967294
User ID:       bzhang376
Account:       gts-phanish6-coda20
Job name:      Abi103
Resources:     cpu=16,mem=112G,node=2
Rsrc Used:     cput=20:33:20,vmem=8784K,walltime=01:17:05,mem=7484K,energy_used=0
Partition:     cpu-small
QOS:           inferno
Nodes:         atl1-1-02-009-28-1,atl1-1-02-009-29-2
---------------------------------------
