
     Program PWSCF v.7.0 starts on 23Feb2023 at 23:56:44 

     This program is part of the open-source Quantum ESPRESSO suite
     for quantum simulation of materials; please cite
         "P. Giannozzi et al., J. Phys.:Condens. Matter 21 395502 (2009);
         "P. Giannozzi et al., J. Phys.:Condens. Matter 29 465901 (2017);
         "P. Giannozzi et al., J. Chem. Phys. 152 154105 (2020);
          URL http://www.quantum-espresso.org", 
     in publications or presentations arising from this work. More details at
     http://www.quantum-espresso.org/quote

     Parallel version (MPI), running on   240 processors

     MPI processes distributed on    20 nodes
     R & G space division:  proc/nbgrp/npool/nimage =     240
     179720 MiB available memory on the printing compute node when the environment starts

     Reading input from pw_soc_cg.inp
Warning: card &CELL ignored
Warning: card / ignored

     Current dimensions of program PWSCF are:
     Max number of different atomic species (ntypx) = 10
     Max number of k-points (npk) =  40000
     Max angular momentum in pseudopotentials (lmaxx) =  4
     Message from routine cell_base_init:
     DEPRECATED: use true lattice parameter, not A to a.u. conversion factor

     IMPORTANT: XC functional enforced from input :
     Exchange-correlation= PBE
                           (   1   4   3   4   0   0   0)
     Any further DFT definition will be discarded
     Please, verify this is what you really want

     Found identity + (  0.0000  0.0000 -0.5000) symmetry
     This is a supercell, fractional translations are disabled

     Subspace diagonalization in iterative solution of the eigenvalue problem:
     one sub-group per band group will be used
     scalapack distributed-memory algorithm (size of sub-group: 15* 15 procs)


     Parallelization info
     --------------------
     sticks:   dense  smooth     PW     G-vecs:    dense   smooth      PW
     Min         122     122     31                 7160     7160     939
     Max         123     123     32                 7163     7163     946
     Sum       29353   29353   7589              1718551  1718551  226033

     Using Pencil Decomposition



     bravais-lattice index     =            0
     lattice parameter (alat)  =       1.0000  a.u.
     unit-cell volume          =   17775.3313 (a.u.)^3
     number of atoms/cell      =           72
     number of atomic types    =            1
     number of electrons       =      1368.00
     number of Kohn-Sham states=         1650
     kinetic-energy cutoff     =      80.0000  Ry
     charge density cutoff     =     320.0000  Ry
     scf convergence threshold =      1.0E-02
     mixing beta               =       0.2000
     number of iterations used =            8  TF        mixing
     Exchange-correlation= PBE
                           (   1   4   3   4   0   0   0)
     Non magnetic calculation with spin-orbit


     celldm(1)=   1.000000  celldm(2)=   0.000000  celldm(3)=   0.000000
     celldm(4)=   0.000000  celldm(5)=   0.000000  celldm(6)=   0.000000

     crystal axes: (cart. coord. in units of alat)
               a(1) = (  33.951920   0.000000   0.000000 )  
               a(2) = (   0.000000  33.951920   0.000000 )  
               a(3) = (   0.000000   0.000000  15.420165 )  

     reciprocal axes: (cart. coord. in units 2 pi/alat)
               b(1) = (  0.029453  0.000000  0.000000 )  
               b(2) = (  0.000000  0.029453  0.000000 )  
               b(3) = (  0.000000  0.000000  0.064850 )  


     PseudoPot. # 1 for Au read from file:
     .././Au_FR.upf
     MD5 check sum: 0f4c7ff4841ea3d6668dbbe9cc620d4d
     Pseudo is Norm-conserving + core correction, Zval = 19.0
     Generated using ONCVPSP code by D. R. Hamann
     Using radial grid of 1356 points, 12 beta functions with: 
                l(1) =   0
                l(2) =   0
                l(3) =   1
                l(4) =   1
                l(5) =   1
                l(6) =   1
                l(7) =   2
                l(8) =   2
                l(9) =   2
               l(10) =   2
               l(11) =   3
               l(12) =   3

     atomic species   valence    mass     pseudopotential
        Au            19.00   197.00000     Au( 1.00)

     No symmetry found


                                    s                        frac. trans.

      isym =  1     identity                                     

 cryst.   s( 1) = (     1          0          0      )
                  (     0          1          0      )
                  (     0          0          1      )

 cart.    s( 1) = (  1.0000000  0.0000000  0.0000000 )
                  (  0.0000000  1.0000000  0.0000000 )
                  (  0.0000000  0.0000000  1.0000000 )


   Cartesian axes

     site n.     atom                  positions (alat units)
         1           Au  tau(   1) = (   7.3383567   7.3383567   1.9275206  )
         2           Au  tau(   2) = (   7.3383567  11.1933981   5.7825619  )
         3           Au  tau(   3) = (  11.1933981   7.3383567   5.7825619  )
         4           Au  tau(   4) = (  11.1933981  11.1933981   1.9275206  )
         5           Au  tau(   5) = (   7.3383567  15.0484394   1.9275206  )
         6           Au  tau(   6) = (   7.3383567  18.9034806   5.7825619  )
         7           Au  tau(   7) = (  11.1933981  15.0484394   5.7825619  )
         8           Au  tau(   8) = (  11.1933981  18.9034806   1.9275206  )
         9           Au  tau(   9) = (   7.3383567  22.7585219   1.9275206  )
        10           Au  tau(  10) = (   7.3383567  26.6135632   5.7825619  )
        11           Au  tau(  11) = (  11.1933981  22.7585219   5.7825619  )
        12           Au  tau(  12) = (  11.1933981  26.6135632   1.9275206  )
        13           Au  tau(  13) = (  15.0484394   7.3383567   1.9275206  )
        14           Au  tau(  14) = (  15.0484394  11.1933981   5.7825619  )
        15           Au  tau(  15) = (  18.9034806   7.3383567   5.7825619  )
        16           Au  tau(  16) = (  18.9034806  11.1933981   1.9275206  )
        17           Au  tau(  17) = (  15.0484394  15.0484394   1.9275206  )
        18           Au  tau(  18) = (  15.0484394  18.9034806   5.7825619  )
        19           Au  tau(  19) = (  18.9034806  15.0484394   5.7825619  )
        20           Au  tau(  20) = (  18.9034806  18.9034806   1.9275206  )
        21           Au  tau(  21) = (  15.0484394  22.7585219   1.9275206  )
        22           Au  tau(  22) = (  15.0484394  26.6135632   5.7825619  )
        23           Au  tau(  23) = (  18.9034806  22.7585219   5.7825619  )
        24           Au  tau(  24) = (  18.9034806  26.6135632   1.9275206  )
        25           Au  tau(  25) = (  22.7585219   7.3383567   1.9275206  )
        26           Au  tau(  26) = (  22.7585219  11.1933981   5.7825619  )
        27           Au  tau(  27) = (  26.6135632   7.3383567   5.7825619  )
        28           Au  tau(  28) = (  26.6135632  11.1933981   1.9275206  )
        29           Au  tau(  29) = (  22.7585219  15.0484394   1.9275206  )
        30           Au  tau(  30) = (  22.7585219  18.9034806   5.7825619  )
        31           Au  tau(  31) = (  26.6135632  15.0484394   5.7825619  )
        32           Au  tau(  32) = (  26.6135632  18.9034806   1.9275206  )
        33           Au  tau(  33) = (  22.7585219  22.7585219   1.9275206  )
        34           Au  tau(  34) = (  22.7585219  26.6135632   5.7825619  )
        35           Au  tau(  35) = (  26.6135632  22.7585219   5.7825619  )
        36           Au  tau(  36) = (  26.6135632  26.6135632   1.9275206  )
        37           Au  tau(  37) = (   7.3383567   7.3383567   9.6376032  )
        38           Au  tau(  38) = (   7.3383567  11.1933981  13.4926445  )
        39           Au  tau(  39) = (  11.1933981   7.3383567  13.4926445  )
        40           Au  tau(  40) = (  11.1933981  11.1933981   9.6376032  )
        41           Au  tau(  41) = (   7.3383567  15.0484394   9.6376032  )
        42           Au  tau(  42) = (   7.3383567  18.9034806  13.4926445  )
        43           Au  tau(  43) = (  11.1933981  15.0484394  13.4926445  )
        44           Au  tau(  44) = (  11.1933981  18.9034806   9.6376032  )
        45           Au  tau(  45) = (   7.3383567  22.7585219   9.6376032  )
        46           Au  tau(  46) = (   7.3383567  26.6135632  13.4926445  )
        47           Au  tau(  47) = (  11.1933981  22.7585219  13.4926445  )
        48           Au  tau(  48) = (  11.1933981  26.6135632   9.6376032  )
        49           Au  tau(  49) = (  15.0484394   7.3383567   9.6376032  )
        50           Au  tau(  50) = (  15.0484394  11.1933981  13.4926445  )
        51           Au  tau(  51) = (  18.9034806   7.3383567  13.4926445  )
        52           Au  tau(  52) = (  18.9034806  11.1933981   9.6376032  )
        53           Au  tau(  53) = (  15.0484394  15.0484394   9.6376032  )
        54           Au  tau(  54) = (  15.0484394  18.9034806  13.4926445  )
        55           Au  tau(  55) = (  18.9034806  15.0484394  13.4926445  )
        56           Au  tau(  56) = (  18.9034806  18.9034806   9.6376032  )
        57           Au  tau(  57) = (  15.0484394  22.7585219   9.6376032  )
        58           Au  tau(  58) = (  15.0484394  26.6135632  13.4926445  )
        59           Au  tau(  59) = (  18.9034806  22.7585219  13.4926445  )
        60           Au  tau(  60) = (  18.9034806  26.6135632   9.6376032  )
        61           Au  tau(  61) = (  22.7585219   7.3383567   9.6376032  )
        62           Au  tau(  62) = (  22.7585219  11.1933981  13.4926445  )
        63           Au  tau(  63) = (  26.6135632   7.3383567  13.4926445  )
        64           Au  tau(  64) = (  26.6135632  11.1933981   9.6376032  )
        65           Au  tau(  65) = (  22.7585219  15.0484394   9.6376032  )
        66           Au  tau(  66) = (  22.7585219  18.9034806  13.4926445  )
        67           Au  tau(  67) = (  26.6135632  15.0484394  13.4926445  )
        68           Au  tau(  68) = (  26.6135632  18.9034806   9.6376032  )
        69           Au  tau(  69) = (  22.7585219  22.7585219   9.6376032  )
        70           Au  tau(  70) = (  22.7585219  26.6135632  13.4926445  )
        71           Au  tau(  71) = (  26.6135632  22.7585219  13.4926445  )
        72           Au  tau(  72) = (  26.6135632  26.6135632   9.6376032  )

   Crystallographic axes

     site n.     atom                  positions (cryst. coord.)
         1           Au  tau(   1) = (  0.2161397  0.2161397  0.1250000  )
         2           Au  tau(   2) = (  0.2161397  0.3296838  0.3750000  )
         3           Au  tau(   3) = (  0.3296838  0.2161397  0.3750000  )
         4           Au  tau(   4) = (  0.3296838  0.3296838  0.1250000  )
         5           Au  tau(   5) = (  0.2161397  0.4432279  0.1250000  )
         6           Au  tau(   6) = (  0.2161397  0.5567721  0.3750000  )
         7           Au  tau(   7) = (  0.3296838  0.4432279  0.3750000  )
         8           Au  tau(   8) = (  0.3296838  0.5567721  0.1250000  )
         9           Au  tau(   9) = (  0.2161397  0.6703162  0.1250000  )
        10           Au  tau(  10) = (  0.2161397  0.7838603  0.3750000  )
        11           Au  tau(  11) = (  0.3296838  0.6703162  0.3750000  )
        12           Au  tau(  12) = (  0.3296838  0.7838603  0.1250000  )
        13           Au  tau(  13) = (  0.4432279  0.2161397  0.1250000  )
        14           Au  tau(  14) = (  0.4432279  0.3296838  0.3750000  )
        15           Au  tau(  15) = (  0.5567721  0.2161397  0.3750000  )
        16           Au  tau(  16) = (  0.5567721  0.3296838  0.1250000  )
        17           Au  tau(  17) = (  0.4432279  0.4432279  0.1250000  )
        18           Au  tau(  18) = (  0.4432279  0.5567721  0.3750000  )
        19           Au  tau(  19) = (  0.5567721  0.4432279  0.3750000  )
        20           Au  tau(  20) = (  0.5567721  0.5567721  0.1250000  )
        21           Au  tau(  21) = (  0.4432279  0.6703162  0.1250000  )
        22           Au  tau(  22) = (  0.4432279  0.7838603  0.3750000  )
        23           Au  tau(  23) = (  0.5567721  0.6703162  0.3750000  )
        24           Au  tau(  24) = (  0.5567721  0.7838603  0.1250000  )
        25           Au  tau(  25) = (  0.6703162  0.2161397  0.1250000  )
        26           Au  tau(  26) = (  0.6703162  0.3296838  0.3750000  )
        27           Au  tau(  27) = (  0.7838603  0.2161397  0.3750000  )
        28           Au  tau(  28) = (  0.7838603  0.3296838  0.1250000  )
        29           Au  tau(  29) = (  0.6703162  0.4432279  0.1250000  )
        30           Au  tau(  30) = (  0.6703162  0.5567721  0.3750000  )
        31           Au  tau(  31) = (  0.7838603  0.4432279  0.3750000  )
        32           Au  tau(  32) = (  0.7838603  0.5567721  0.1250000  )
        33           Au  tau(  33) = (  0.6703162  0.6703162  0.1250000  )
        34           Au  tau(  34) = (  0.6703162  0.7838603  0.3750000  )
        35           Au  tau(  35) = (  0.7838603  0.6703162  0.3750000  )
        36           Au  tau(  36) = (  0.7838603  0.7838603  0.1250000  )
        37           Au  tau(  37) = (  0.2161397  0.2161397  0.6250000  )
        38           Au  tau(  38) = (  0.2161397  0.3296838  0.8750000  )
        39           Au  tau(  39) = (  0.3296838  0.2161397  0.8750000  )
        40           Au  tau(  40) = (  0.3296838  0.3296838  0.6250000  )
        41           Au  tau(  41) = (  0.2161397  0.4432279  0.6250000  )
        42           Au  tau(  42) = (  0.2161397  0.5567721  0.8750000  )
        43           Au  tau(  43) = (  0.3296838  0.4432279  0.8750000  )
        44           Au  tau(  44) = (  0.3296838  0.5567721  0.6250000  )
        45           Au  tau(  45) = (  0.2161397  0.6703162  0.6250000  )
        46           Au  tau(  46) = (  0.2161397  0.7838603  0.8750000  )
        47           Au  tau(  47) = (  0.3296838  0.6703162  0.8750000  )
        48           Au  tau(  48) = (  0.3296838  0.7838603  0.6250000  )
        49           Au  tau(  49) = (  0.4432279  0.2161397  0.6250000  )
        50           Au  tau(  50) = (  0.4432279  0.3296838  0.8750000  )
        51           Au  tau(  51) = (  0.5567721  0.2161397  0.8750000  )
        52           Au  tau(  52) = (  0.5567721  0.3296838  0.6250000  )
        53           Au  tau(  53) = (  0.4432279  0.4432279  0.6250000  )
        54           Au  tau(  54) = (  0.4432279  0.5567721  0.8750000  )
        55           Au  tau(  55) = (  0.5567721  0.4432279  0.8750000  )
        56           Au  tau(  56) = (  0.5567721  0.5567721  0.6250000  )
        57           Au  tau(  57) = (  0.4432279  0.6703162  0.6250000  )
        58           Au  tau(  58) = (  0.4432279  0.7838603  0.8750000  )
        59           Au  tau(  59) = (  0.5567721  0.6703162  0.8750000  )
        60           Au  tau(  60) = (  0.5567721  0.7838603  0.6250000  )
        61           Au  tau(  61) = (  0.6703162  0.2161397  0.6250000  )
        62           Au  tau(  62) = (  0.6703162  0.3296838  0.8750000  )
        63           Au  tau(  63) = (  0.7838603  0.2161397  0.8750000  )
        64           Au  tau(  64) = (  0.7838603  0.3296838  0.6250000  )
        65           Au  tau(  65) = (  0.6703162  0.4432279  0.6250000  )
        66           Au  tau(  66) = (  0.6703162  0.5567721  0.8750000  )
        67           Au  tau(  67) = (  0.7838603  0.4432279  0.8750000  )
        68           Au  tau(  68) = (  0.7838603  0.5567721  0.6250000  )
        69           Au  tau(  69) = (  0.6703162  0.6703162  0.6250000  )
        70           Au  tau(  70) = (  0.6703162  0.7838603  0.8750000  )
        71           Au  tau(  71) = (  0.7838603  0.6703162  0.8750000  )
        72           Au  tau(  72) = (  0.7838603  0.7838603  0.6250000  )

     number of k points=     2  Fermi-Dirac smearing, width (Ry)=  0.0020
                       cart. coord. in units 2pi/alat
        k(    1) = (   0.0000000   0.0000000   0.0081063), wk =   0.5000000
        k(    2) = (   0.0000000   0.0000000   0.0243188), wk =   0.5000000

                       cryst. coord.
        k(    1) = (   0.0000000   0.0000000   0.1250000), wk =   0.5000000
        k(    2) = (   0.0000000   0.0000000   0.3750000), wk =   0.5000000

     Dense  grid:  1718551 G-vectors     FFT dimensions: ( 200, 200,  90)

     Dynamical RAM for                 wfc:      45.02 MB

     Dynamical RAM for     wfc (w. buffer):     135.05 MB

     Dynamical RAM for           str. fact:       0.11 MB

     Dynamical RAM for           local pot:       0.00 MB

     Dynamical RAM for          nlocal pot:      47.14 MB

     Dynamical RAM for                qrad:       7.46 MB

     Dynamical RAM for          rho,v,vnew:       4.97 MB

     Dynamical RAM for               rhoin:       1.66 MB

     Dynamical RAM for            rho*nmix:       6.99 MB

     Dynamical RAM for           G-vectors:       0.46 MB

     Dynamical RAM for          h,s,v(r/c):       0.55 MB

     Dynamical RAM for          <psi|beta>:     174.02 MB

     Dynamical RAM for      wfcinit/wfcrot:     129.85 MB

     Estimated static dynamical RAM per process >     199.52 MB

     Estimated max dynamical RAM per process >     381.10 MB

     Estimated total dynamical RAM >      89.32 GB

     Initial potential from superposition of free atoms

     starting charge    1367.9917, renormalised to    1368.0000

     negative rho (up, down):  1.831E-06 0.000E+00
     Starting wfcs are random

     total cpu time spent up to now is       42.7 secs

     per-process dynamical memory:   683.3 Mb

     Self-consistent Calculation

     iteration #  1     ecut=    80.00 Ry     beta= 0.20
     CG style diagonalization

---- Real-time Memory Report at c_bands before calling an iterative solver
           775 MiB given to the printing process from OS
           667 MiB allocation reported by mallinfo(arena+hblkhd)
        171689 MiB available memory on the node where the printing process lives
------------------
     ethr =  1.00E-02,  avg # of iterations = 16.5

     Threshold (ethr) on eigenvalues was too large:
     Diagonalizing with lowered threshold

     CG style diagonalization

---- Real-time Memory Report at c_bands before calling an iterative solver
           909 MiB given to the printing process from OS
           795 MiB allocation reported by mallinfo(arena+hblkhd)
        156968 MiB available memory on the node where the printing process lives
------------------
     ethr =  4.26E-04,  avg # of iterations =  2.1

     negative rho (up, down):  1.637E-06 0.000E+00

     total cpu time spent up to now is     3229.1 secs

     total energy              =  -21268.05654457 Ry
     estimated scf accuracy    <       5.48608526 Ry

     iteration #  2     ecut=    80.00 Ry     beta= 0.20
     CG style diagonalization

---- Real-time Memory Report at c_bands before calling an iterative solver
           909 MiB given to the printing process from OS
           795 MiB allocation reported by mallinfo(arena+hblkhd)
        156790 MiB available memory on the node where the printing process lives
------------------
     ethr =  4.01E-04,  avg # of iterations =  3.0

     negative rho (up, down):  1.155E-03 0.000E+00

     total cpu time spent up to now is     3624.8 secs

     total energy              =  -21266.99076682 Ry
     estimated scf accuracy    <       2.98399738 Ry

     iteration #  3     ecut=    80.00 Ry     beta= 0.20
     CG style diagonalization

---- Real-time Memory Report at c_bands before calling an iterative solver
           909 MiB given to the printing process from OS
           795 MiB allocation reported by mallinfo(arena+hblkhd)
        156672 MiB available memory on the node where the printing process lives
------------------
     ethr =  2.18E-04,  avg # of iterations =  3.6

     negative rho (up, down):  2.087E-03 0.000E+00

     total cpu time spent up to now is     4120.7 secs

     total energy              =  -21267.65278003 Ry
     estimated scf accuracy    <       0.11219509 Ry

     iteration #  4     ecut=    80.00 Ry     beta= 0.20
     CG style diagonalization

---- Real-time Memory Report at c_bands before calling an iterative solver
           909 MiB given to the printing process from OS
           795 MiB allocation reported by mallinfo(arena+hblkhd)
        156585 MiB available memory on the node where the printing process lives
------------------
     c_bands:  1 eigenvalues not converged
     ethr =  8.20E-06,  avg # of iterations =  7.2

     negative rho (up, down):  5.903E-03 0.000E+00

     total cpu time spent up to now is     5103.1 secs

     total energy              =  -21267.65379852 Ry
     estimated scf accuracy    <       0.10096378 Ry

     iteration #  5     ecut=    80.00 Ry     beta= 0.20
     CG style diagonalization

---- Real-time Memory Report at c_bands before calling an iterative solver
           909 MiB given to the printing process from OS
           795 MiB allocation reported by mallinfo(arena+hblkhd)
        156583 MiB available memory on the node where the printing process lives
------------------
     ethr =  7.38E-06,  avg # of iterations =  3.6

     negative rho (up, down):  1.380E-02 0.000E+00

     total cpu time spent up to now is     5593.2 secs

     total energy              =  -21267.66375704 Ry
     estimated scf accuracy    <       0.07494197 Ry

     iteration #  6     ecut=    80.00 Ry     beta= 0.20
     CG style diagonalization

---- Real-time Memory Report at c_bands before calling an iterative solver
           909 MiB given to the printing process from OS
           795 MiB allocation reported by mallinfo(arena+hblkhd)
        156434 MiB available memory on the node where the printing process lives
------------------
     ethr =  5.48E-06,  avg # of iterations =  3.0

     negative rho (up, down):  1.664E-02 0.000E+00

     total cpu time spent up to now is     5981.6 secs

     total energy              =  -21267.66604051 Ry
     estimated scf accuracy    <       0.02174304 Ry

     iteration #  7     ecut=    80.00 Ry     beta= 0.20
     CG style diagonalization

---- Real-time Memory Report at c_bands before calling an iterative solver
           909 MiB given to the printing process from OS
           795 MiB allocation reported by mallinfo(arena+hblkhd)
        155899 MiB available memory on the node where the printing process lives
------------------
     ethr =  1.59E-06,  avg # of iterations =  3.0

     negative rho (up, down):  2.353E-02 0.000E+00

     total cpu time spent up to now is     6378.5 secs

     total energy              =  -21267.66677625 Ry
     estimated scf accuracy    <       0.01353016 Ry

     iteration #  8     ecut=    80.00 Ry     beta= 0.20
     CG style diagonalization

---- Real-time Memory Report at c_bands before calling an iterative solver
           909 MiB given to the printing process from OS
           795 MiB allocation reported by mallinfo(arena+hblkhd)
        156394 MiB available memory on the node where the printing process lives
------------------
     ethr =  9.89E-07,  avg # of iterations =  3.1

     total cpu time spent up to now is     6776.2 secs

     End of self-consistent calculation

          k = 0.0000 0.0000 0.0081 (214720 PWs)   bands (ev):

   -98.3996 -98.3996 -98.3962 -98.3962 -98.3946 -98.3946 -98.3936 -98.3936
   -98.3934 -98.3934 -98.3933 -98.3933 -98.3933 -98.3933 -98.3914 -98.3914
   -98.3349 -98.3349 -98.3343 -98.3343 -98.3342 -98.3342 -98.3334 -98.3334
   -98.3332 -98.3332 -98.3332 -98.3332 -98.3331 -98.3331 -98.3327 -98.3327
   -98.3315 -98.3315 -98.3312 -98.3312 -98.3310 -98.3310 -98.3309 -98.3309
   -98.3307 -98.3307 -98.3299 -98.3299 -98.3298 -98.3298 -98.3291 -98.3291
   -98.2495 -98.2495 -98.2494 -98.2494 -98.2494 -98.2494 -98.2493 -98.2493
   -98.2492 -98.2492 -98.2492 -98.2492 -98.2491 -98.2491 -98.2491 -98.2491
   -97.8344 -97.8344 -97.8344 -97.8344 -97.8344 -97.8344 -97.8343 -97.8343
   -97.8327 -97.8327 -97.8327 -97.8327 -97.8327 -97.8327 -97.8326 -97.8326
   -97.8319 -97.8319 -97.8319 -97.8319 -97.8319 -97.8319 -97.8317 -97.8317
   -97.8305 -97.8305 -97.8305 -97.8305 -97.8305 -97.8305 -97.8303 -97.8303
   -97.8015 -97.8015 -97.8015 -97.8015 -97.8014 -97.8014 -97.8014 -97.8014
   -97.8014 -97.8014 -97.8013 -97.8013 -97.8013 -97.8013 -97.8013 -97.8013
   -97.7994 -97.7994 -97.7994 -97.7994 -97.7994 -97.7994 -97.7994 -97.7994
   -97.7993 -97.7993 -97.7993 -97.7993 -97.7993 -97.7993 -97.7992 -97.7992
   -97.3705 -97.3705 -97.3704 -97.3704 -97.3703 -97.3703 -97.3703 -97.3703
   -97.3702 -97.3702 -97.3702 -97.3702 -97.3701 -97.3701 -97.3701 -97.3701
   -62.0895 -62.0895 -62.0838 -62.0838 -62.0837 -62.0837 -62.0827 -62.0827
   -62.0826 -62.0826 -62.0778 -62.0778 -62.0728 -62.0728 -62.0642 -62.0642
   -62.0276 -62.0276 -62.0252 -62.0252 -62.0251 -62.0251 -62.0219 -62.0219
   -62.0212 -62.0212 -62.0204 -62.0204 -62.0204 -62.0204 -62.0191 -62.0191
   -62.0144 -62.0144 -62.0134 -62.0134 -62.0128 -62.0128 -62.0128 -62.0128
   -62.0109 -62.0109 -62.0082 -62.0082 -62.0081 -62.0081 -62.0035 -62.0035
   -61.9357 -61.9357 -61.9356 -61.9356 -61.9356 -61.9355 -61.9355 -61.9355
   -61.9345 -61.9345 -61.9344 -61.9344 -61.9343 -61.9343 -61.9341 -61.9341
   -61.5227 -61.5227 -61.5226 -61.5226 -61.5226 -61.5225 -61.5224 -61.5224
   -61.5157 -61.5157 -61.5157 -61.5156 -61.5155 -61.5155 -61.5155 -61.5154
   -61.5128 -61.5128 -61.5127 -61.5126 -61.5126 -61.5126 -61.5126 -61.5124
   -61.5090 -61.5090 -61.5087 -61.5087 -61.5086 -61.5086 -61.5084 -61.5084
   -61.4869 -61.4869 -61.4869 -61.4869 -61.4869 -61.4868 -61.4868 -61.4868
   -61.4854 -61.4854 -61.4849 -61.4849 -61.4849 -61.4849 -61.4844 -61.4844
   -61.4795 -61.4795 -61.4795 -61.4795 -61.4795 -61.4795 -61.4794 -61.4794
   -61.4782 -61.4782 -61.4779 -61.4779 -61.4778 -61.4778 -61.4775 -61.4775
   -61.0570 -61.0570 -61.0569 -61.0569 -61.0568 -61.0568 -61.0568 -61.0568
   -61.0566 -61.0566 -61.0566 -61.0566 -61.0564 -61.0564 -61.0564 -61.0564
   -45.6404 -45.6404 -45.6313 -45.6313 -45.6283 -45.6283 -45.6266 -45.6266
   -45.6266 -45.6266 -45.6236 -45.6236 -45.6179 -45.6179 -45.6060 -45.6059
   -45.5953 -45.5953 -45.5949 -45.5949 -45.5835 -45.5835 -45.5810 -45.5810
   -45.5769 -45.5769 -45.5693 -45.5692 -45.5689 -45.5689 -45.5573 -45.5573
   -45.5554 -45.5554 -45.5513 -45.5513 -45.5477 -45.5477 -45.5464 -45.5464
   -45.5427 -45.5427 -45.5411 -45.5411 -45.5385 -45.5385 -45.5366 -45.5365
   -45.5238 -45.5237 -45.5201 -45.5201 -45.5175 -45.5175 -45.5129 -45.5129
   -45.5125 -45.5125 -45.5116 -45.5116 -45.5102 -45.5102 -45.5100 -45.5099
   -45.5015 -45.5015 -45.5007 -45.5007 -45.4952 -45.4952 -45.4919 -45.4919
   -45.4865 -45.4865 -45.4853 -45.4853 -45.4830 -45.4830 -45.4816 -45.4816
   -45.4778 -45.4777 -45.4756 -45.4756 -45.4735 -45.4735 -45.4671 -45.4671
   -45.4671 -45.4670 -45.4632 -45.4632 -45.4627 -45.4627 -45.4600 -45.4600
   -45.4260 -45.4260 -45.4258 -45.4257 -45.4243 -45.4243 -45.4236 -45.4236
   -45.4226 -45.4226 -45.4199 -45.4198 -45.4193 -45.4193 -45.4188 -45.4187
   -45.4161 -45.4161 -45.4133 -45.4133 -45.4116 -45.4116 -45.4114 -45.4113
   -45.4113 -45.4112 -45.4064 -45.4064 -45.4061 -45.4060 -45.4007 -45.4007
   -45.0752 -45.0752 -45.0742 -45.0742 -45.0724 -45.0723 -45.0709 -45.0709
   -45.0457 -45.0457 -45.0449 -45.0449 -45.0444 -45.0444 -45.0429 -45.0429
   -45.0410 -45.0409 -45.0403 -45.0402 -45.0389 -45.0389 -45.0348 -45.0347
   -45.0344 -45.0343 -45.0316 -45.0316 -45.0264 -45.0264 -45.0232 -45.0232
   -45.0179 -45.0179 -45.0149 -45.0149 -45.0109 -45.0109 -45.0082 -45.0082
   -45.0016 -45.0016 -45.0009 -45.0008 -44.9978 -44.9978 -44.9929 -44.9929
   -44.9928 -44.9928 -44.9906 -44.9905 -44.9857 -44.9857 -44.9854 -44.9853
   -44.9847 -44.9846 -44.9838 -44.9837 -44.9821 -44.9821 -44.9786 -44.9786
   -44.9716 -44.9716 -44.9692 -44.9692 -44.9684 -44.9684 -44.9669 -44.9669
   -44.9663 -44.9663 -44.9640 -44.9640 -44.9631 -44.9631 -44.9625 -44.9625
   -44.9619 -44.9619 -44.9613 -44.9613 -44.9588 -44.9588 -44.9581 -44.9581
   -44.9573 -44.9573 -44.9573 -44.9573 -44.9567 -44.9566 -44.9559 -44.9559
   -44.9540 -44.9540 -44.9529 -44.9528 -44.9524 -44.9524 -44.9520 -44.9520
   -44.9492 -44.9492 -44.9483 -44.9483 -44.9474 -44.9474 -44.9471 -44.9470
   -44.9249 -44.9249 -44.9244 -44.9244 -44.9238 -44.9237 -44.9236 -44.9235
   -44.9219 -44.9219 -44.9217 -44.9217 -44.9210 -44.9210 -44.9203 -44.9203
   -44.5648 -44.5647 -44.5646 -44.5646 -44.5643 -44.5643 -44.5642 -44.5642
   -44.5628 -44.5628 -44.5627 -44.5627 -44.5624 -44.5624 -44.5623 -44.5623
   -44.5327 -44.5326 -44.5325 -44.5325 -44.5320 -44.5319 -44.5318 -44.5318
   -44.5317 -44.5317 -44.5316 -44.5316 -44.5310 -44.5310 -44.5309 -44.5309
    -2.2823  -2.2823  -1.4512  -1.4512  -1.4467  -1.4467  -0.6967  -0.6967
    -0.5236  -0.5236  -0.3854  -0.3854  -0.3511  -0.3511  -0.1897  -0.1897
    -0.1885  -0.1885  -0.1604  -0.1604  -0.0820  -0.0820   0.0524   0.0524
     0.0563   0.0563   0.0872   0.0872   0.0875   0.0875   0.1339   0.1339
     0.1728   0.1728   0.2157   0.2157   0.2526   0.2526   0.3329   0.3329
     0.3392   0.3392   0.3469   0.3469   0.3558   0.3558   0.3784   0.3784
     0.3810   0.3810   0.3864   0.3864   0.3880   0.3880   0.4929   0.4929
     0.5899   0.5899   0.5927   0.5927   0.6033   0.6033   0.6053   0.6053
     0.6071   0.6071   0.6182   0.6182   0.6196   0.6196   0.6328   0.6328
     0.6594   0.6594   0.6666   0.6666   0.6936   0.6936   0.6938   0.6938
     0.7852   0.7853   0.8178   0.8178   0.8239   0.8239   0.8394   0.8394
     0.8665   0.8665   0.8886   0.8886   0.8951   0.8951   0.9165   0.9165
     0.9268   0.9268   0.9359   0.9360   0.9601   0.9601   0.9854   0.9854
     1.0096   1.0096   1.0361   1.0361   1.0436   1.0436   1.0448   1.0448
     1.0538   1.0538   1.0639   1.0639   1.0747   1.0747   1.0750   1.0750
     1.1098   1.1098   1.1247   1.1247   1.1253   1.1253   1.1384   1.1384
     1.1564   1.1564   1.1916   1.1916   1.2116   1.2116   1.2445   1.2445
     1.2510   1.2510   1.2516   1.2516   1.2811   1.2811   1.2925   1.2925
     1.3403   1.3403   1.3405   1.3405   1.3790   1.3790   1.3867   1.3867
     1.4218   1.4218   1.4235   1.4235   1.4341   1.4341   1.4460   1.4460
     1.4500   1.4500   1.4548   1.4548   1.4638   1.4638   1.4780   1.4780
     1.5059   1.5059   1.5210   1.5210   1.5253   1.5253   1.5300   1.5300
     1.5450   1.5450   1.5571   1.5571   1.5664   1.5664   1.5899   1.5899
     1.6035   1.6035   1.6054   1.6054   1.6311   1.6311   1.6596   1.6597
     1.6921   1.6921   1.7074   1.7074   1.7075   1.7075   1.7099   1.7099
     1.7300   1.7300   1.7531   1.7531   1.7593   1.7593   1.7698   1.7698
     1.7847   1.7847   1.7989   1.7989   1.8029   1.8029   1.8208   1.8208
     1.8582   1.8582   1.8675   1.8675   1.8784   1.8784   1.8798   1.8798
     1.8954   1.8955   1.8956   1.8956   1.8963   1.8963   1.9061   1.9061
     1.9234   1.9234   1.9325   1.9325   1.9355   1.9355   1.9588   1.9588
     1.9601   1.9601   1.9667   1.9667   1.9926   1.9926   1.9990   1.9990
     2.0278   2.0278   2.0305   2.0305   2.0428   2.0428   2.0474   2.0474
     2.0811   2.0811   2.1167   2.1167   2.1510   2.1510   2.1521   2.1521
     2.1768   2.1768   2.1884   2.1884   2.1930   2.1930   2.1953   2.1953
     2.2188   2.2188   2.2189   2.2189   2.2349   2.2349   2.2539   2.2539
     2.2640   2.2641   2.2862   2.2862   2.3044   2.3044   2.3241   2.3241
     2.3485   2.3485   2.3606   2.3606   2.3852   2.3852   2.3969   2.3969
     2.4058   2.4058   2.4059   2.4059   2.4091   2.4091   2.4381   2.4381
     2.4631   2.4631   2.4770   2.4770   2.4804   2.4804   2.4877   2.4878
     2.5216   2.5216   2.5787   2.5787   2.5877   2.5877   2.5910   2.5910
     2.5928   2.5928   2.5995   2.5995   2.6210   2.6210   2.6360   2.6360
     2.6523   2.6523   2.6634   2.6634   2.6715   2.6715   2.7244   2.7244
     2.7363   2.7364   2.7408   2.7408   2.7796   2.7796   2.7858   2.7858
     2.7948   2.7948   2.8123   2.8124   2.8521   2.8521   2.8536   2.8537
     2.8913   2.8913   2.8925   2.8925   2.9230   2.9230   2.9521   2.9521
     2.9751   2.9751   2.9891   2.9891   3.0306   3.0306   3.0312   3.0312
     3.0379   3.0379   3.0816   3.0816   3.1060   3.1060   3.1523   3.1523
     3.1534   3.1534   3.1703   3.1703   3.2032   3.2032   3.2036   3.2036
     3.2723   3.2723   3.2852   3.2852   3.3030   3.3030   3.3238   3.3238
     3.3375   3.3375   3.3450   3.3450   3.3646   3.3646   3.4408   3.4408
     3.4570   3.4570   3.4601   3.4601   3.4656   3.4656   3.4727   3.4727
     3.4824   3.4824   3.5181   3.5181   3.5245   3.5245   3.5305   3.5305
     3.5362   3.5362   3.5402   3.5402   3.5485   3.5485   3.5578   3.5578
     3.5696   3.5696   3.5930   3.5930   3.6063   3.6063   3.6201   3.6201
     3.6225   3.6225   3.6461   3.6462   3.6645   3.6645   3.6702   3.6702
     3.6966   3.6966   3.7002   3.7002   3.7093   3.7093   3.7249   3.7249
     3.7350   3.7351   3.7514   3.7514   3.7954   3.7954   3.8014   3.8014
     3.8173   3.8173   3.8240   3.8240   3.8317   3.8317   3.8362   3.8362
     3.8671   3.8671   3.8722   3.8722   3.8841   3.8841   3.8873   3.8873
     3.9066   3.9066   3.9456   3.9456   3.9456   3.9456   3.9591   3.9591
     3.9745   3.9745   3.9830   3.9830   3.9909   3.9909   3.9944   3.9944
     4.0096   4.0096   4.0224   4.0224   4.0468   4.0468   4.0518   4.0518
     4.0652   4.0652   4.0663   4.0663   4.0822   4.0822   4.0879   4.0879
     4.0973   4.0973   4.1027   4.1027   4.1293   4.1293   4.1443   4.1444
     4.1583   4.1583   4.1597   4.1597   4.1673   4.1673   4.1941   4.1941
     4.2022   4.2022   4.2033   4.2033   4.2166   4.2166   4.2256   4.2256
     4.2327   4.2327   4.2398   4.2399   4.2434   4.2434   4.2566   4.2566
     4.2589   4.2589   4.2823   4.2823   4.2890   4.2890   4.3047   4.3047
     4.3109   4.3109   4.3134   4.3134   4.3460   4.3460   4.3656   4.3656
     4.3831   4.3831   4.3851   4.3851   4.3897   4.3897   4.3989   4.3989
     4.4075   4.4075   4.4129   4.4129   4.4150   4.4150   4.4359   4.4359
     4.4379   4.4379   4.4460   4.4460   4.4692   4.4692   4.5057   4.5058
     4.5202   4.5202   4.5230   4.5230   4.5255   4.5255   4.5474   4.5474
     4.5489   4.5489   4.5599   4.5599   4.5719   4.5719   4.5848   4.5848
     4.5854   4.5854   4.5995   4.5995   4.6078   4.6078   4.6086   4.6086
     4.6151   4.6151   4.6433   4.6433   4.6634   4.6634   4.6699   4.6699
     4.6735   4.6736   4.6849   4.6849   4.6911   4.6911   4.6933   4.6933
     4.6948   4.6948   4.7038   4.7038   4.7229   4.7229   4.7326   4.7326
     4.7410   4.7410   4.7531   4.7531   4.7556   4.7556   4.7665   4.7666
     4.7863   4.7863   4.7874   4.7874   4.8003   4.8003   4.8022   4.8022
     4.8103   4.8103   4.8407   4.8407   4.8411   4.8411   4.8685   4.8686
     4.8703   4.8703   4.8770   4.8770   4.8874   4.8874   4.9174   4.9174
     4.9293   4.9293   4.9511   4.9512   4.9534   4.9534   4.9669   4.9669
     5.0132   5.0132   5.0248   5.0248   5.0374   5.0374   5.0427   5.0427
     5.0463   5.0463   5.0509   5.0509   5.0583   5.0583   5.0674   5.0674
     5.0770   5.0770   5.0811   5.0811   5.1013   5.1013   5.1109   5.1109
     5.1274   5.1274   5.1308   5.1308   5.1379   5.1379   5.1484   5.1484
     5.1514   5.1514   5.1779   5.1779   5.2023   5.2023   5.2026   5.2026
     5.2142   5.2142   5.2441   5.2441   5.2514   5.2514   5.2907   5.2907
     5.2914   5.2914   5.3030   5.3030   5.3126   5.3126   5.3436   5.3436
     5.3588   5.3589   5.3842   5.3842   5.3848   5.3848   5.3951   5.3951
     5.4156   5.4156   5.4186   5.4186   5.4391   5.4391   5.4724   5.4724
     5.5116   5.5116   5.5480   5.5480   5.5807   5.5807   5.6087   5.6087
     5.6444   5.6444   5.6461   5.6461   5.6599   5.6599   5.6752   5.6752
     5.7018   5.7018   5.7097   5.7097   5.7347   5.7347   5.7379   5.7379
     5.7529   5.7529   5.7896   5.7896   5.8075   5.8075   5.8309   5.8309
     5.9391   5.9391   5.9933   5.9934   6.0135   6.0135   6.2052   6.2052
     6.2192   6.2192   6.3681   6.3681   6.4650   6.4650   6.5845   6.5845
     6.6628   6.6628   6.6746   6.6746   6.7061   6.7061   6.7545   6.7545
     6.7929   6.7929   6.8138   6.8138   6.8364   6.8364   7.0252   7.0252
     7.3304   7.3304   7.3737   7.3737   7.4503   7.4503   7.5273   7.5273
     7.6650   7.6650   7.6803   7.6803   7.7361   7.7361   7.7586   7.7586
     7.7744   7.7744   7.7955   7.7955   8.0221   8.0221   8.1339   8.1339
     8.2359   8.2359   8.3422   8.3422   8.5615   8.5615   8.6228   8.6228
     8.6628   8.6628   8.6887   8.6887   8.6995   8.6995   8.7194   8.7194
     8.7974   8.7974   8.8248   8.8248   8.8771   8.8771   8.9596   8.9596
     8.9871   8.9871   8.9887   8.9887   8.9915   8.9915   9.2035   9.2035
     9.2304   9.2304   9.6321   9.6321   9.6530   9.6530   9.6871   9.6871
     9.7716   9.7716   9.8390   9.8390   9.8693   9.8693   9.8822   9.8822
     9.9880   9.9880   9.9931   9.9931  10.0757  10.0757  10.0952  10.0952
    10.1735  10.1735  10.4377  10.4377  10.5734  10.5734  10.6043  10.6043
    10.6576  10.6576  11.0288  11.0288  11.0382  11.0382  11.1301  11.1301
    11.2224  11.2224  11.2860  11.2860  11.3688  11.3688  11.4122  11.4122
    11.4224  11.4224  11.4414  11.4414  11.6200  11.6200  11.6779  11.6779
    11.7000  11.7000  11.7526  11.7526  11.7708  11.7708  11.7839  11.7839
    11.8663  11.8663  11.9163  11.9163  11.9255  11.9255  11.9850  11.9850
    12.0461  12.0461  12.1122  12.1122  12.1182  12.1182  12.4339  12.4339
    12.4675  12.4675  12.4870  12.4870  12.5152  12.5152  12.5849  12.5849
    12.6374  12.6374  12.6760  12.6760  12.7204  12.7205  12.7580  12.7580
    12.7748  12.7748  12.8269  12.8270  12.8834  12.8835  12.9035  12.9036
    12.9769  12.9769  13.0616  13.0616  13.1700  13.1700  13.1875  13.1875
    13.1939  13.1939  13.2090  13.2090  13.3644  13.3644  13.3856  13.3856
    13.4066  13.4066  13.4151  13.4151  13.4600  13.4601  13.4681  13.4681
    13.5195  13.5195  13.5669  13.5669  13.5749  13.5749  13.5882  13.5882
    13.7525  13.7525  13.8317  13.8317  13.8614  13.8614  13.9490  13.9491
    14.0129  14.0129  14.0172  14.0172  14.0743  14.0743  14.1232  14.1232
    14.1840  14.1840  14.2398  14.2397  14.2418  14.2419  14.2974  14.2974
    14.3001  14.3002  14.3140  14.3141  14.4190  14.4190  14.4524  14.4524
    14.5518  14.5518  14.5659  14.5659  14.5670  14.5671  14.6607  14.6607
    14.6905  14.6905  14.7908  14.7908  14.7960  14.7960  14.8458  14.8458
    14.8808  14.8807  14.9551  14.9550  14.9570  14.9571  14.9800  14.9801
    14.9928  14.9928  15.0128  15.0129  15.0176  15.0176  15.0192  15.0193
    15.0401  15.0401  15.2136  15.2135  15.2160  15.2161  15.2506  15.2506
    15.2806  15.2806  15.3062  15.3062  15.3248  15.3248  15.3580  15.3583
    15.4054  15.4050

     occupation numbers 
     1.0000   1.0000   1.0000   1.0000   1.0000   1.0000   1.0000   1.0000
     1.0000   1.0000   1.0000   1.0000   1.0000   1.0000   1.0000   1.0000
     1.0000   1.0000   1.0000   1.0000   1.0000   1.0000   1.0000   1.0000
     1.0000   1.0000   1.0000   1.0000   1.0000   1.0000   1.0000   1.0000
     1.0000   1.0000   1.0000   1.0000   1.0000   1.0000   1.0000   1.0000
     1.0000   1.0000   1.0000   1.0000   1.0000   1.0000   1.0000   1.0000
     1.0000   1.0000   1.0000   1.0000   1.0000   1.0000   1.0000   1.0000
     1.0000   1.0000   1.0000   1.0000   1.0000   1.0000   1.0000   1.0000
     1.0000   1.0000   1.0000   1.0000   1.0000   1.0000   1.0000   1.0000
     1.0000   1.0000   1.0000   1.0000   1.0000   1.0000   1.0000   1.0000
     1.0000   1.0000   1.0000   1.0000   1.0000   1.0000   1.0000   1.0000
     1.0000   1.0000   1.0000   1.0000   1.0000   1.0000   1.0000   1.0000
     1.0000   1.0000   1.0000   1.0000   1.0000   1.0000   1.0000   1.0000
     1.0000   1.0000   1.0000   1.0000   1.0000   1.0000   1.0000   1.0000
     1.0000   1.0000   1.0000   1.0000   1.0000   1.0000   1.0000   1.0000
     1.0000   1.0000   1.0000   1.0000   1.0000   1.0000   1.0000   1.0000
     1.0000   1.0000   1.0000   1.0000   1.0000   1.0000   1.0000   1.0000
     1.0000   1.0000   1.0000   1.0000   1.0000   1.0000   1.0000   1.0000
     1.0000   1.0000   1.0000   1.0000   1.0000   1.0000   1.0000   1.0000
     1.0000   1.0000   1.0000   1.0000   1.0000   1.0000   1.0000   1.0000
     1.0000   1.0000   1.0000   1.0000   1.0000   1.0000   1.0000   1.0000
     1.0000   1.0000   1.0000   1.0000   1.0000   1.0000   1.0000   1.0000
     1.0000   1.0000   1.0000   1.0000   1.0000   1.0000   1.0000   1.0000
     1.0000   1.0000   1.0000   1.0000   1.0000   1.0000   1.0000   1.0000
     1.0000   1.0000   1.0000   1.0000   1.0000   1.0000   1.0000   1.0000
     1.0000   1.0000   1.0000   1.0000   1.0000   1.0000   1.0000   1.0000
     1.0000   1.0000   1.0000   1.0000   1.0000   1.0000   1.0000   1.0000
     1.0000   1.0000   1.0000   1.0000   1.0000   1.0000   1.0000   1.0000
     1.0000   1.0000   1.0000   1.0000   1.0000   1.0000   1.0000   1.0000
     1.0000   1.0000   1.0000   1.0000   1.0000   1.0000   1.0000   1.0000
     1.0000   1.0000   1.0000   1.0000   1.0000   1.0000   1.0000   1.0000
     1.0000   1.0000   1.0000   1.0000   1.0000   1.0000   1.0000   1.0000
     1.0000   1.0000   1.0000   1.0000   1.0000   1.0000   1.0000   1.0000
     1.0000   1.0000   1.0000   1.0000   1.0000   1.0000   1.0000   1.0000
     1.0000   1.0000   1.0000   1.0000   1.0000   1.0000   1.0000   1.0000
     1.0000   1.0000   1.0000   1.0000   1.0000   1.0000   1.0000   1.0000
     1.0000   1.0000   1.0000   1.0000   1.0000   1.0000   1.0000   1.0000
     1.0000   1.0000   1.0000   1.0000   1.0000   1.0000   1.0000   1.0000
     1.0000   1.0000   1.0000   1.0000   1.0000   1.0000   1.0000   1.0000
     1.0000   1.0000   1.0000   1.0000   1.0000   1.0000   1.0000   1.0000
     1.0000   1.0000   1.0000   1.0000   1.0000   1.0000   1.0000   1.0000
     1.0000   1.0000   1.0000   1.0000   1.0000   1.0000   1.0000   1.0000
     1.0000   1.0000   1.0000   1.0000   1.0000   1.0000   1.0000   1.0000
     1.0000   1.0000   1.0000   1.0000   1.0000   1.0000   1.0000   1.0000
     1.0000   1.0000   1.0000   1.0000   1.0000   1.0000   1.0000   1.0000
     1.0000   1.0000   1.0000   1.0000   1.0000   1.0000   1.0000   1.0000
     1.0000   1.0000   1.0000   1.0000   1.0000   1.0000   1.0000   1.0000
     1.0000   1.0000   1.0000   1.0000   1.0000   1.0000   1.0000   1.0000
     1.0000   1.0000   1.0000   1.0000   1.0000   1.0000   1.0000   1.0000
     1.0000   1.0000   1.0000   1.0000   1.0000   1.0000   1.0000   1.0000
     1.0000   1.0000   1.0000   1.0000   1.0000   1.0000   1.0000   1.0000
     1.0000   1.0000   1.0000   1.0000   1.0000   1.0000   1.0000   1.0000
     1.0000   1.0000   1.0000   1.0000   1.0000   1.0000   1.0000   1.0000
     1.0000   1.0000   1.0000   1.0000   1.0000   1.0000   1.0000   1.0000
     1.0000   1.0000   1.0000   1.0000   1.0000   1.0000   1.0000   1.0000
     1.0000   1.0000   1.0000   1.0000   1.0000   1.0000   1.0000   1.0000
     1.0000   1.0000   1.0000   1.0000   1.0000   1.0000   1.0000   1.0000
     1.0000   1.0000   1.0000   1.0000   1.0000   1.0000   1.0000   1.0000
     1.0000   1.0000   1.0000   1.0000   1.0000   1.0000   1.0000   1.0000
     1.0000   1.0000   1.0000   1.0000   1.0000   1.0000   1.0000   1.0000
     1.0000   1.0000   1.0000   1.0000   1.0000   1.0000   1.0000   1.0000
     1.0000   1.0000   1.0000   1.0000   1.0000   1.0000   1.0000   1.0000
     1.0000   1.0000   1.0000   1.0000   1.0000   1.0000   1.0000   1.0000
     1.0000   1.0000   1.0000   1.0000   1.0000   1.0000   1.0000   1.0000
     1.0000   1.0000   1.0000   1.0000   1.0000   1.0000   1.0000   1.0000
     1.0000   1.0000   1.0000   1.0000   1.0000   1.0000   1.0000   1.0000
     1.0000   1.0000   1.0000   1.0000   1.0000   1.0000   1.0000   1.0000
     1.0000   1.0000   1.0000   1.0000   1.0000   1.0000   1.0000   1.0000
     1.0000   1.0000   1.0000   1.0000   1.0000   1.0000   1.0000   1.0000
     1.0000   1.0000   1.0000   1.0000   1.0000   1.0000   1.0000   1.0000
     1.0000   1.0000   1.0000   1.0000   1.0000   1.0000   1.0000   1.0000
     1.0000   1.0000   1.0000   1.0000   1.0000   1.0000   1.0000   1.0000
     1.0000   1.0000   1.0000   1.0000   1.0000   1.0000   1.0000   1.0000
     1.0000   1.0000   1.0000   1.0000   1.0000   1.0000   1.0000   1.0000
     1.0000   1.0000   1.0000   1.0000   1.0000   1.0000   1.0000   1.0000
     1.0000   1.0000   1.0000   1.0000   1.0000   1.0000   1.0000   1.0000
     1.0000   1.0000   1.0000   1.0000   1.0000   1.0000   1.0000   1.0000
     1.0000   1.0000   1.0000   1.0000   1.0000   1.0000   1.0000   1.0000
     1.0000   1.0000   1.0000   1.0000   1.0000   1.0000   1.0000   1.0000
     1.0000   1.0000   1.0000   1.0000   1.0000   1.0000   1.0000   1.0000
     1.0000   1.0000   1.0000   1.0000   1.0000   1.0000   1.0000   1.0000
     1.0000   1.0000   1.0000   1.0000   1.0000   1.0000   1.0000   1.0000
     1.0000   1.0000   1.0000   1.0000   1.0000   1.0000   1.0000   1.0000
     1.0000   1.0000   1.0000   1.0000   1.0000   1.0000   1.0000   1.0000
     1.0000   1.0000   1.0000   1.0000   1.0000   1.0000   1.0000   1.0000
     1.0000   1.0000   1.0000   1.0000   1.0000   1.0000   1.0000   1.0000
     1.0000   1.0000   1.0000   1.0000   1.0000   1.0000   1.0000   1.0000
     1.0000   1.0000   1.0000   1.0000   1.0000   1.0000   1.0000   1.0000
     1.0000   1.0000   1.0000   1.0000   1.0000   1.0000   1.0000   1.0000
     1.0000   1.0000   1.0000   1.0000   1.0000   1.0000   1.0000   1.0000
     1.0000   1.0000   1.0000   1.0000   1.0000   1.0000   1.0000   1.0000
     1.0000   1.0000   1.0000   1.0000   1.0000   1.0000   1.0000   1.0000
     1.0000   1.0000   1.0000   1.0000   1.0000   1.0000   1.0000   1.0000
     1.0000   1.0000   1.0000   1.0000   1.0000   1.0000   1.0000   1.0000
     1.0000   1.0000   1.0000   1.0000   1.0000   1.0000   1.0000   1.0000
     1.0000   1.0000   1.0000   1.0000   1.0000   1.0000   1.0000   1.0000
     1.0000   1.0000   1.0000   1.0000   1.0000   1.0000   1.0000   1.0000
     1.0000   1.0000   1.0000   1.0000   1.0000   1.0000   1.0000   1.0000
     1.0000   1.0000   1.0000   1.0000   1.0000   1.0000   1.0000   1.0000
     1.0000   1.0000   1.0000   1.0000   1.0000   1.0000   1.0000   1.0000
     1.0000   1.0000   1.0000   1.0000   1.0000   1.0000   1.0000   1.0000
     1.0000   1.0000   1.0000   1.0000   1.0000   1.0000   1.0000   1.0000
     1.0000   1.0000   1.0000   1.0000   1.0000   1.0000   1.0000   1.0000
     1.0000   1.0000   1.0000   1.0000   1.0000   1.0000   1.0000   1.0000
     1.0000   1.0000   1.0000   1.0000   1.0000   1.0000   1.0000   1.0000
     1.0000   1.0000   1.0000   1.0000   1.0000   1.0000   1.0000   1.0000
     1.0000   1.0000   1.0000   1.0000   1.0000   1.0000   1.0000   1.0000
     1.0000   1.0000   1.0000   1.0000   1.0000   1.0000   1.0000   1.0000
     1.0000   1.0000   1.0000   1.0000   1.0000   1.0000   1.0000   1.0000
     1.0000   1.0000   1.0000   1.0000   1.0000   1.0000   1.0000   1.0000
     1.0000   1.0000   1.0000   1.0000   1.0000   1.0000   1.0000   1.0000
     1.0000   1.0000   1.0000   1.0000   1.0000   1.0000   1.0000   1.0000
     1.0000   1.0000   1.0000   1.0000   1.0000   1.0000   1.0000   1.0000
     1.0000   1.0000   1.0000   1.0000   1.0000   1.0000   1.0000   1.0000
     1.0000   1.0000   1.0000   1.0000   1.0000   1.0000   1.0000   1.0000
     1.0000   1.0000   1.0000   1.0000   1.0000   1.0000   1.0000   1.0000
     1.0000   1.0000   1.0000   1.0000   1.0000   1.0000   1.0000   1.0000
     1.0000   1.0000   1.0000   1.0000   1.0000   1.0000   1.0000   1.0000
     1.0000   1.0000   1.0000   1.0000   1.0000   1.0000   1.0000   1.0000
     1.0000   1.0000   1.0000   1.0000   1.0000   1.0000   1.0000   1.0000
     1.0000   1.0000   1.0000   1.0000   1.0000   1.0000   1.0000   1.0000
     1.0000   1.0000   1.0000   1.0000   1.0000   1.0000   1.0000   1.0000
     1.0000   1.0000   1.0000   1.0000   1.0000   1.0000   1.0000   1.0000
     1.0000   1.0000   1.0000   1.0000   1.0000   1.0000   1.0000   1.0000
     1.0000   1.0000   1.0000   1.0000   1.0000   1.0000   1.0000   1.0000
     1.0000   1.0000   1.0000   1.0000   1.0000   1.0000   1.0000   1.0000
     1.0000   1.0000   1.0000   1.0000   1.0000   1.0000   1.0000   1.0000
     1.0000   1.0000   1.0000   1.0000   1.0000   1.0000   1.0000   1.0000
     1.0000   1.0000   1.0000   1.0000   1.0000   1.0000   1.0000   1.0000
     1.0000   1.0000   1.0000   1.0000   1.0000   1.0000   1.0000   1.0000
     1.0000   1.0000   1.0000   1.0000   1.0000   1.0000   1.0000   1.0000
     1.0000   1.0000   1.0000   1.0000   1.0000   1.0000   1.0000   1.0000
     1.0000   1.0000   1.0000   1.0000   1.0000   1.0000   1.0000   1.0000
     1.0000   1.0000   1.0000   1.0000   1.0000   1.0000   1.0000   1.0000
     1.0000   1.0000   1.0000   1.0000   1.0000   1.0000   1.0000   1.0000
     1.0000   1.0000   1.0000   1.0000   1.0000   1.0000   1.0000   1.0000
     1.0000   1.0000   1.0000   1.0000   1.0000   1.0000   1.0000   1.0000
     1.0000   1.0000   1.0000   1.0000   1.0000   1.0000   1.0000   1.0000
     1.0000   1.0000   1.0000   1.0000   1.0000   1.0000   1.0000   1.0000
     1.0000   1.0000   1.0000   1.0000   1.0000   1.0000   1.0000   1.0000
     1.0000   1.0000   1.0000   1.0000   1.0000   1.0000   1.0000   1.0000
     1.0000   1.0000   1.0000   1.0000   1.0000   1.0000   1.0000   1.0000
     1.0000   1.0000   1.0000   1.0000   1.0000   1.0000   1.0000   1.0000
     1.0000   1.0000   1.0000   1.0000   1.0000   1.0000   1.0000   1.0000
     1.0000   1.0000   1.0000   1.0000   1.0000   1.0000   1.0000   1.0000
     1.0000   1.0000   1.0000   1.0000   1.0000   1.0000   1.0000   1.0000
     1.0000   1.0000   1.0000   1.0000   1.0000   1.0000   1.0000   1.0000
     1.0000   1.0000   1.0000   1.0000   1.0000   1.0000   1.0000   1.0000
     1.0000   1.0000   1.0000   1.0000   1.0000   1.0000   1.0000   1.0000
     1.0000   1.0000   1.0000   1.0000   1.0000   1.0000   1.0000   1.0000
     1.0000   1.0000   1.0000   1.0000   1.0000   1.0000   1.0000   1.0000
     1.0000   1.0000   1.0000   1.0000   1.0000   1.0000   1.0000   1.0000
     1.0000   1.0000   1.0000   1.0000   1.0000   1.0000   1.0000   1.0000
     1.0000   1.0000   1.0000   1.0000   1.0000   1.0000   1.0000   1.0000
     1.0000   1.0000   1.0000   1.0000   1.0000   1.0000   1.0000   1.0000
     1.0000   1.0000   1.0000   1.0000   1.0000   1.0000   1.0000   1.0000
     1.0000   1.0000   1.0000   1.0000   1.0000   1.0000   1.0000   1.0000
     1.0000   1.0000   1.0000   1.0000   1.0000   1.0000   1.0000   1.0000
     1.0000   1.0000   1.0000   1.0000   1.0000   1.0000   1.0000   1.0000
     1.0000   1.0000   1.0000   1.0000   1.0000   1.0000   1.0000   1.0000
     1.0000   1.0000   1.0000   1.0000   1.0000   1.0000   1.0000   1.0000
     1.0000   1.0000   1.0000   1.0000   1.0000   1.0000   1.0000   1.0000
     1.0000   1.0000   1.0000   1.0000   1.0000   1.0000   1.0000   1.0000
     1.0000   1.0000   1.0000   1.0000   1.0000   1.0000   1.0000   1.0000
     1.0000   1.0000   1.0000   1.0000   1.0000   1.0000   1.0000   1.0000
     1.0000   1.0000   1.0000   1.0000   1.0000   1.0000   1.0000   1.0000
     1.0000   1.0000   1.0000   1.0000   1.0000   1.0000   1.0000   1.0000
     1.0000   1.0000   1.0000   1.0000   1.0000   1.0000   1.0000   1.0000
     1.0000   1.0000   1.0000   1.0000   1.0000   1.0000   1.0000   1.0000
     1.0000   1.0000   1.0000   1.0000   1.0000   1.0000   0.9999   0.9999
     0.9987   0.9987   0.9979   0.9979   0.9935   0.9935   0.9627   0.9627
     0.8629   0.8629   0.7448   0.7448   0.5600   0.5600   0.0012   0.0012
     0.0000   0.0000   0.0000   0.0000   0.0000   0.0000   0.0000   0.0000
     0.0000   0.0000   0.0000   0.0000   0.0000   0.0000   0.0000   0.0000
     0.0000   0.0000   0.0000   0.0000   0.0000   0.0000   0.0000   0.0000
     0.0000   0.0000   0.0000   0.0000   0.0000   0.0000   0.0000   0.0000
     0.0000   0.0000   0.0000   0.0000   0.0000   0.0000   0.0000   0.0000
     0.0000   0.0000   0.0000   0.0000   0.0000   0.0000   0.0000   0.0000
     0.0000   0.0000   0.0000   0.0000   0.0000   0.0000   0.0000   0.0000
     0.0000   0.0000   0.0000   0.0000   0.0000   0.0000   0.0000   0.0000
     0.0000   0.0000   0.0000   0.0000   0.0000   0.0000   0.0000   0.0000
     0.0000   0.0000   0.0000   0.0000   0.0000   0.0000   0.0000   0.0000
     0.0000   0.0000   0.0000   0.0000   0.0000   0.0000   0.0000   0.0000
     0.0000   0.0000   0.0000   0.0000   0.0000   0.0000   0.0000   0.0000
     0.0000   0.0000   0.0000   0.0000   0.0000   0.0000   0.0000   0.0000
     0.0000   0.0000   0.0000   0.0000   0.0000   0.0000   0.0000   0.0000
     0.0000   0.0000   0.0000   0.0000   0.0000   0.0000   0.0000   0.0000
     0.0000   0.0000   0.0000   0.0000   0.0000   0.0000   0.0000   0.0000
     0.0000   0.0000   0.0000   0.0000   0.0000   0.0000   0.0000   0.0000
     0.0000   0.0000   0.0000   0.0000   0.0000   0.0000   0.0000   0.0000
     0.0000   0.0000   0.0000   0.0000   0.0000   0.0000   0.0000   0.0000
     0.0000   0.0000   0.0000   0.0000   0.0000   0.0000   0.0000   0.0000
     0.0000   0.0000   0.0000   0.0000   0.0000   0.0000   0.0000   0.0000
     0.0000   0.0000   0.0000   0.0000   0.0000   0.0000   0.0000   0.0000
     0.0000   0.0000   0.0000   0.0000   0.0000   0.0000   0.0000   0.0000
     0.0000   0.0000   0.0000   0.0000   0.0000   0.0000   0.0000   0.0000
     0.0000   0.0000   0.0000   0.0000   0.0000   0.0000   0.0000   0.0000
     0.0000   0.0000   0.0000   0.0000   0.0000   0.0000   0.0000   0.0000
     0.0000   0.0000   0.0000   0.0000   0.0000   0.0000   0.0000   0.0000
     0.0000   0.0000   0.0000   0.0000   0.0000   0.0000   0.0000   0.0000
     0.0000   0.0000   0.0000   0.0000   0.0000   0.0000   0.0000   0.0000
     0.0000   0.0000   0.0000   0.0000   0.0000   0.0000   0.0000   0.0000
     0.0000   0.0000   0.0000   0.0000   0.0000   0.0000   0.0000   0.0000
     0.0000   0.0000   0.0000   0.0000   0.0000   0.0000   0.0000   0.0000
     0.0000   0.0000   0.0000   0.0000   0.0000   0.0000   0.0000   0.0000
     0.0000   0.0000   0.0000   0.0000   0.0000   0.0000   0.0000   0.0000
     0.0000   0.0000

          k = 0.0000 0.0000 0.0243 (214784 PWs)   bands (ev):

   -98.3990 -98.3990 -98.3978 -98.3978 -98.3936 -98.3936 -98.3934 -98.3934
   -98.3934 -98.3934 -98.3933 -98.3933 -98.3931 -98.3931 -98.3920 -98.3920
   -98.3347 -98.3347 -98.3342 -98.3342 -98.3340 -98.3340 -98.3339 -98.3339
   -98.3336 -98.3336 -98.3335 -98.3335 -98.3328 -98.3328 -98.3322 -98.3322
   -98.3320 -98.3320 -98.3315 -98.3315 -98.3306 -98.3306 -98.3305 -98.3305
   -98.3302 -98.3302 -98.3301 -98.3301 -98.3299 -98.3299 -98.3294 -98.3294
   -98.2495 -98.2495 -98.2494 -98.2494 -98.2494 -98.2494 -98.2493 -98.2493
   -98.2492 -98.2492 -98.2492 -98.2492 -98.2492 -98.2492 -98.2491 -98.2491
   -97.8341 -97.8341 -97.8341 -97.8341 -97.8341 -97.8341 -97.8339 -97.8339
   -97.8335 -97.8335 -97.8335 -97.8335 -97.8335 -97.8335 -97.8333 -97.8333
   -97.8313 -97.8313 -97.8312 -97.8312 -97.8312 -97.8312 -97.8311 -97.8311
   -97.8307 -97.8307 -97.8307 -97.8307 -97.8307 -97.8307 -97.8306 -97.8306
   -97.8015 -97.8015 -97.8014 -97.8014 -97.8014 -97.8014 -97.8014 -97.8014
   -97.8014 -97.8014 -97.8014 -97.8014 -97.8013 -97.8013 -97.8013 -97.8013
   -97.7994 -97.7994 -97.7994 -97.7994 -97.7994 -97.7994 -97.7994 -97.7994
   -97.7993 -97.7993 -97.7993 -97.7993 -97.7993 -97.7993 -97.7992 -97.7992
   -97.3705 -97.3705 -97.3704 -97.3704 -97.3703 -97.3703 -97.3703 -97.3703
   -97.3702 -97.3702 -97.3702 -97.3702 -97.3701 -97.3701 -97.3701 -97.3701
   -62.0871 -62.0871 -62.0835 -62.0835 -62.0834 -62.0834 -62.0830 -62.0830
   -62.0830 -62.0830 -62.0829 -62.0829 -62.0686 -62.0686 -62.0657 -62.0657
   -62.0265 -62.0265 -62.0245 -62.0245 -62.0241 -62.0241 -62.0240 -62.0240
   -62.0223 -62.0223 -62.0222 -62.0222 -62.0199 -62.0199 -62.0176 -62.0176
   -62.0164 -62.0164 -62.0144 -62.0144 -62.0110 -62.0110 -62.0109 -62.0109
   -62.0092 -62.0092 -62.0091 -62.0091 -62.0076 -62.0076 -62.0050 -62.0050
   -61.9353 -61.9353 -61.9352 -61.9352 -61.9352 -61.9352 -61.9351 -61.9351
   -61.9348 -61.9348 -61.9347 -61.9347 -61.9346 -61.9346 -61.9345 -61.9345
   -61.5213 -61.5213 -61.5212 -61.5212 -61.5211 -61.5211 -61.5210 -61.5210
   -61.5188 -61.5188 -61.5187 -61.5186 -61.5186 -61.5186 -61.5185 -61.5184
   -61.5106 -61.5106 -61.5105 -61.5105 -61.5105 -61.5104 -61.5103 -61.5103
   -61.5094 -61.5094 -61.5093 -61.5092 -61.5092 -61.5092 -61.5090 -61.5090
   -61.4864 -61.4864 -61.4863 -61.4863 -61.4863 -61.4863 -61.4862 -61.4862
   -61.4858 -61.4858 -61.4855 -61.4855 -61.4854 -61.4854 -61.4851 -61.4851
   -61.4791 -61.4791 -61.4790 -61.4790 -61.4790 -61.4790 -61.4789 -61.4789
   -61.4785 -61.4785 -61.4783 -61.4783 -61.4783 -61.4783 -61.4781 -61.4781
   -61.0570 -61.0570 -61.0569 -61.0569 -61.0567 -61.0567 -61.0567 -61.0567
   -61.0567 -61.0567 -61.0566 -61.0566 -61.0565 -61.0565 -61.0565 -61.0565
   -45.6382 -45.6382 -45.6351 -45.6351 -45.6284 -45.6284 -45.6273 -45.6273
   -45.6211 -45.6211 -45.6209 -45.6209 -45.6140 -45.6139 -45.6138 -45.6138
   -45.6047 -45.6047 -45.6006 -45.6006 -45.5765 -45.5765 -45.5761 -45.5761
   -45.5748 -45.5748 -45.5726 -45.5726 -45.5642 -45.5642 -45.5588 -45.5588
   -45.5523 -45.5523 -45.5511 -45.5511 -45.5506 -45.5506 -45.5503 -45.5503
   -45.5422 -45.5422 -45.5420 -45.5420 -45.5313 -45.5313 -45.5288 -45.5288
   -45.5244 -45.5244 -45.5223 -45.5222 -45.5165 -45.5165 -45.5156 -45.5156
   -45.5149 -45.5149 -45.5144 -45.5144 -45.5088 -45.5088 -45.5081 -45.5081
   -45.4999 -45.4998 -45.4982 -45.4982 -45.4955 -45.4955 -45.4951 -45.4951
   -45.4900 -45.4900 -45.4877 -45.4877 -45.4876 -45.4876 -45.4835 -45.4835
   -45.4795 -45.4795 -45.4763 -45.4763 -45.4735 -45.4735 -45.4695 -45.4694
   -45.4630 -45.4630 -45.4629 -45.4629 -45.4608 -45.4608 -45.4569 -45.4569
   -45.4277 -45.4277 -45.4271 -45.4270 -45.4261 -45.4260 -45.4255 -45.4255
   -45.4181 -45.4181 -45.4174 -45.4174 -45.4169 -45.4168 -45.4160 -45.4159
   -45.4149 -45.4149 -45.4142 -45.4142 -45.4137 -45.4137 -45.4110 -45.4110
   -45.4092 -45.4092 -45.4070 -45.4069 -45.4059 -45.4059 -45.4043 -45.4043
   -45.0687 -45.0687 -45.0682 -45.0682 -45.0659 -45.0659 -45.0636 -45.0635
   -45.0572 -45.0572 -45.0571 -45.0570 -45.0553 -45.0552 -45.0521 -45.0520
   -45.0401 -45.0401 -45.0383 -45.0383 -45.0374 -45.0374 -45.0350 -45.0350
   -45.0349 -45.0349 -45.0311 -45.0311 -45.0305 -45.0305 -45.0273 -45.0273
   -45.0151 -45.0150 -45.0117 -45.0117 -45.0049 -45.0048 -45.0045 -45.0045
   -45.0018 -45.0018 -45.0004 -45.0004 -44.9947 -44.9947 -44.9922 -44.9921
   -44.9904 -44.9903 -44.9890 -44.9889 -44.9858 -44.9858 -44.9812 -44.9812
   -44.9812 -44.9811 -44.9791 -44.9791 -44.9791 -44.9790 -44.9774 -44.9774
   -44.9756 -44.9756 -44.9721 -44.9721 -44.9714 -44.9714 -44.9703 -44.9703
   -44.9677 -44.9677 -44.9673 -44.9673 -44.9653 -44.9653 -44.9641 -44.9641
   -44.9613 -44.9613 -44.9603 -44.9603 -44.9599 -44.9599 -44.9585 -44.9584
   -44.9560 -44.9560 -44.9553 -44.9553 -44.9549 -44.9549 -44.9546 -44.9546
   -44.9529 -44.9528 -44.9528 -44.9528 -44.9527 -44.9527 -44.9513 -44.9513
   -44.9504 -44.9504 -44.9500 -44.9500 -44.9495 -44.9495 -44.9485 -44.9485
   -44.9250 -44.9250 -44.9248 -44.9248 -44.9248 -44.9248 -44.9230 -44.9230
   -44.9225 -44.9225 -44.9210 -44.9210 -44.9197 -44.9197 -44.9196 -44.9196
   -44.5645 -44.5645 -44.5643 -44.5643 -44.5637 -44.5637 -44.5636 -44.5635
   -44.5634 -44.5634 -44.5633 -44.5633 -44.5627 -44.5627 -44.5626 -44.5625
   -44.5331 -44.5331 -44.5329 -44.5329 -44.5328 -44.5328 -44.5326 -44.5326
   -44.5309 -44.5309 -44.5307 -44.5307 -44.5306 -44.5306 -44.5305 -44.5304
    -1.9481  -1.9481  -1.3209  -1.3209  -1.1698  -1.1698  -1.1646  -1.1646
    -0.6705  -0.6705  -0.6639  -0.6639  -0.5436  -0.5436  -0.3199  -0.3199
    -0.2197  -0.2197  -0.1486  -0.1486  -0.0657  -0.0657   0.0286   0.0286
     0.0419   0.0419   0.1202   0.1202   0.1418   0.1418   0.1551   0.1551
     0.2663   0.2663   0.2765   0.2765   0.2878   0.2878   0.3186   0.3186
     0.3338   0.3338   0.4111   0.4111   0.4136   0.4136   0.4251   0.4251
     0.4497   0.4497   0.4514   0.4514   0.4613   0.4613   0.5147   0.5147
     0.5156   0.5156   0.5869   0.5869   0.6036   0.6036   0.6318   0.6318
     0.6417   0.6417   0.6480   0.6480   0.6700   0.6700   0.6889   0.6889
     0.6997   0.6997   0.7020   0.7020   0.7577   0.7577   0.7598   0.7598
     0.7784   0.7784   0.7813   0.7813   0.7872   0.7872   0.8043   0.8043
     0.8322   0.8322   0.8395   0.8395   0.8655   0.8655   0.8740   0.8740
     0.8797   0.8797   0.9113   0.9113   0.9188   0.9188   0.9239   0.9239
     0.9443   0.9443   0.9466   0.9466   0.9475   0.9475   0.9810   0.9810
     0.9952   0.9952   1.0260   1.0260   1.0383   1.0383   1.0519   1.0519
     1.0794   1.0794   1.0817   1.0817   1.0841   1.0841   1.0875   1.0875
     1.1175   1.1175   1.1544   1.1544   1.1898   1.1898   1.2026   1.2026
     1.2118   1.2118   1.2317   1.2317   1.2521   1.2521   1.2588   1.2588
     1.2937   1.2937   1.3041   1.3041   1.3069   1.3069   1.3690   1.3690
     1.3841   1.3841   1.3866   1.3866   1.4441   1.4441   1.4581   1.4581
     1.4767   1.4767   1.5069   1.5069   1.5328   1.5328   1.5534   1.5534
     1.5593   1.5593   1.5731   1.5731   1.5746   1.5746   1.5774   1.5774
     1.5970   1.5970   1.5990   1.5990   1.6115   1.6115   1.6463   1.6463
     1.6484   1.6484   1.6584   1.6584   1.6607   1.6607   1.6685   1.6685
     1.6810   1.6810   1.6901   1.6901   1.6905   1.6905   1.7148   1.7148
     1.7186   1.7186   1.7517   1.7517   1.7583   1.7583   1.7751   1.7751
     1.7901   1.7901   1.7973   1.7973   1.8173   1.8173   1.8325   1.8325
     1.8355   1.8355   1.8635   1.8635   1.8693   1.8693   1.8962   1.8962
     1.8970   1.8970   1.9104   1.9104   1.9140   1.9140   1.9194   1.9194
     1.9455   1.9455   1.9537   1.9537   1.9547   1.9547   1.9641   1.9641
     1.9660   1.9660   1.9923   1.9923   1.9942   1.9942   2.0207   2.0207
     2.0400   2.0400   2.0527   2.0527   2.0720   2.0720   2.0815   2.0815
     2.0841   2.0841   2.1184   2.1184   2.1314   2.1314   2.1485   2.1485
     2.1585   2.1585   2.1789   2.1789   2.1928   2.1928   2.1928   2.1928
     2.2149   2.2149   2.2191   2.2191   2.2254   2.2254   2.2440   2.2440
     2.2584   2.2584   2.2607   2.2607   2.2678   2.2679   2.2922   2.2922
     2.2950   2.2950   2.3349   2.3350   2.3410   2.3410   2.3560   2.3560
     2.3884   2.3884   2.3988   2.3988   2.4832   2.4832   2.4910   2.4910
     2.4978   2.4978   2.5084   2.5084   2.5288   2.5288   2.5522   2.5522
     2.5527   2.5527   2.5623   2.5623   2.5762   2.5762   2.5988   2.5988
     2.6480   2.6480   2.6611   2.6612   2.6685   2.6685   2.6716   2.6716
     2.6827   2.6827   2.7024   2.7024   2.7044   2.7044   2.7117   2.7117
     2.7171   2.7171   2.7339   2.7339   2.7431   2.7431   2.7681   2.7681
     2.7740   2.7740   2.8024   2.8024   2.8066   2.8066   2.8517   2.8517
     2.8553   2.8553   2.8653   2.8653   2.8977   2.8977   2.9602   2.9602
     3.0165   3.0165   3.0310   3.0310   3.0584   3.0584   3.0663   3.0663
     3.0735   3.0735   3.0880   3.0880   3.1008   3.1008   3.1183   3.1183
     3.1884   3.1884   3.1903   3.1903   3.1924   3.1925   3.1934   3.1934
     3.2541   3.2541   3.2588   3.2588   3.2638   3.2638   3.2719   3.2719
     3.2894   3.2894   3.3063   3.3063   3.3470   3.3470   3.3930   3.3930
     3.3958   3.3958   3.4040   3.4040   3.4251   3.4251   3.4435   3.4435
     3.4524   3.4524   3.4701   3.4701   3.4896   3.4896   3.5058   3.5058
     3.5212   3.5212   3.5666   3.5666   3.5691   3.5691   3.5960   3.5960
     3.6136   3.6136   3.6244   3.6244   3.6317   3.6317   3.6462   3.6463
     3.6562   3.6562   3.6660   3.6660   3.6817   3.6817   3.6906   3.6906
     3.7011   3.7011   3.7065   3.7065   3.7095   3.7095   3.7354   3.7354
     3.7396   3.7397   3.7607   3.7607   3.7637   3.7637   3.7645   3.7645
     3.7906   3.7906   3.8038   3.8038   3.8255   3.8255   3.8372   3.8372
     3.8480   3.8480   3.8674   3.8674   3.8680   3.8680   3.8795   3.8795
     3.8956   3.8956   3.9049   3.9049   3.9242   3.9242   3.9313   3.9313
     3.9317   3.9317   3.9586   3.9586   3.9648   3.9648   3.9775   3.9775
     3.9798   3.9798   4.0004   4.0004   4.0233   4.0233   4.0261   4.0261
     4.0309   4.0309   4.0593   4.0593   4.0724   4.0724   4.0804   4.0804
     4.0814   4.0815   4.0886   4.0886   4.1193   4.1193   4.1248   4.1248
     4.1348   4.1348   4.1625   4.1626   4.1646   4.1646   4.1691   4.1691
     4.1945   4.1945   4.1959   4.1959   4.2203   4.2203   4.2376   4.2376
     4.2540   4.2540   4.2554   4.2554   4.2588   4.2588   4.2767   4.2767
     4.2817   4.2817   4.2855   4.2855   4.3007   4.3007   4.3028   4.3029
     4.3096   4.3096   4.3143   4.3144   4.3243   4.3243   4.3316   4.3316
     4.3402   4.3402   4.3446   4.3446   4.3670   4.3670   4.3852   4.3852
     4.3852   4.3852   4.4030   4.4030   4.4058   4.4058   4.4062   4.4062
     4.4261   4.4261   4.4620   4.4620   4.4712   4.4712   4.4762   4.4762
     4.4929   4.4929   4.5078   4.5078   4.5083   4.5083   4.5336   4.5336
     4.5344   4.5344   4.5365   4.5365   4.5382   4.5382   4.5483   4.5484
     4.5621   4.5621   4.5785   4.5785   4.5838   4.5838   4.5896   4.5897
     4.6081   4.6081   4.6132   4.6133   4.6265   4.6265   4.6369   4.6369
     4.6494   4.6494   4.6504   4.6504   4.6746   4.6746   4.6934   4.6934
     4.7036   4.7036   4.7125   4.7125   4.7301   4.7301   4.7367   4.7367
     4.7510   4.7510   4.7821   4.7821   4.7861   4.7861   4.8013   4.8013
     4.8183   4.8183   4.8206   4.8206   4.8611   4.8611   4.8660   4.8660
     4.8704   4.8704   4.8727   4.8727   4.8888   4.8889   4.8906   4.8906
     4.9236   4.9236   4.9286   4.9286   4.9392   4.9392   4.9428   4.9428
     4.9742   4.9742   4.9955   4.9955   4.9958   4.9958   5.0202   5.0203
     5.0241   5.0241   5.0304   5.0304   5.0383   5.0383   5.0396   5.0396
     5.0655   5.0655   5.0768   5.0768   5.0943   5.0943   5.1047   5.1047
     5.1224   5.1224   5.1243   5.1243   5.1302   5.1302   5.1497   5.1497
     5.1514   5.1514   5.1542   5.1542   5.1545   5.1545   5.1675   5.1675
     5.1786   5.1786   5.1862   5.1862   5.1865   5.1865   5.1969   5.1969
     5.2078   5.2078   5.2188   5.2188   5.2291   5.2291   5.2297   5.2297
     5.2311   5.2311   5.2447   5.2447   5.2667   5.2667   5.2719   5.2719
     5.2867   5.2867   5.2940   5.2940   5.3013   5.3013   5.3047   5.3047
     5.3256   5.3256   5.3330   5.3330   5.3363   5.3363   5.3418   5.3419
     5.3732   5.3732   5.4063   5.4063   5.4303   5.4303   5.4395   5.4395
     5.4705   5.4705   5.4721   5.4721   5.5034   5.5034   5.5072   5.5072
     5.5672   5.5672   5.5758   5.5758   5.6194   5.6194   5.6199   5.6199
     5.7272   5.7272   5.7712   5.7712   5.8461   5.8461   5.9394   5.9394
     5.9425   5.9425   6.1610   6.1610   6.1930   6.1930   6.3118   6.3118
     6.5077   6.5077   6.5229   6.5229   6.5241   6.5241   6.5937   6.5937
     6.7250   6.7250   6.8153   6.8153   6.8887   6.8887   7.1260   7.1260
     7.1759   7.1759   7.2338   7.2339   7.2914   7.2914   7.3175   7.3175
     7.5268   7.5268   7.5886   7.5886   7.6844   7.6844   7.8109   7.8109
     7.8132   7.8132   7.9100   7.9100   8.0557   8.0557   8.0792   8.0792
     8.0964   8.0964   8.2767   8.2767   8.2857   8.2857   8.3598   8.3598
     8.3753   8.3753   8.5380   8.5380   8.5795   8.5795   8.6026   8.6026
     8.7134   8.7134   9.0233   9.0233   9.0465   9.0465   9.0472   9.0472
     9.0609   9.0609   9.1347   9.1347   9.1764   9.1764   9.1832   9.1832
     9.2898   9.2898   9.3262   9.3262   9.4208   9.4208   9.4985   9.4985
     9.5027   9.5027   9.5092   9.5092   9.5195   9.5195   9.5642   9.5642
     9.5952   9.5952   9.6112   9.6112   9.6946   9.6946   9.7556   9.7556
     9.9056   9.9056   9.9143   9.9143   9.9144   9.9144  10.4641  10.4641
    10.4859  10.4859  10.5019  10.5019  10.5345  10.5345  10.5634  10.5634
    10.5755  10.5755  10.5837  10.5837  10.6310  10.6310  10.6525  10.6525
    10.6741  10.6741  10.7237  10.7237  10.9711  10.9711  10.9839  10.9839
    11.0622  11.0622  11.2950  11.2950  11.3504  11.3504  11.4299  11.4299
    11.4814  11.4814  11.4996  11.4996  11.5565  11.5565  11.5719  11.5719
    11.6587  11.6587  11.6861  11.6861  11.7624  11.7624  11.8048  11.8048
    11.8648  11.8648  11.8781  11.8781  11.9519  11.9519  12.0101  12.0101
    12.0185  12.0185  12.0255  12.0255  12.0840  12.0840  12.1833  12.1833
    12.1855  12.1855  12.3519  12.3519  12.4001  12.4001  12.4011  12.4011
    12.4927  12.4927  12.5971  12.5971  12.6327  12.6327  12.6499  12.6499
    12.6653  12.6653  12.8046  12.8047  12.8702  12.8702  12.8840  12.8840
    12.9171  12.9171  12.9981  12.9980  13.0242  13.0242  13.0424  13.0424
    13.1527  13.1527  13.1736  13.1736  13.2393  13.2393  13.2654  13.2654
    13.2764  13.2764  13.3178  13.3178  13.6205  13.6205  13.6262  13.6263
    13.6628  13.6628  13.6943  13.6944  13.7397  13.7396  13.7961  13.7961
    13.8378  13.8378  13.8519  13.8519  13.9578  13.9578  13.9842  13.9842
    14.0854  14.0855  14.1000  14.1001  14.2154  14.2155  14.3865  14.3866
    14.4714  14.4714  14.4869  14.4869  14.4921  14.4921  14.5388  14.5388
    14.5594  14.5595  14.6415  14.6415  14.6732  14.6732  14.7455  14.7455
    14.7456  14.7456  14.7669  14.7669  14.7720  14.7720  14.7821  14.7822
    14.7870  14.7870  14.8253  14.8254  14.9068  14.9068  14.9383  14.9383
    15.0040  15.0041  15.0105  15.0105  15.0209  15.0212  15.0619  15.0617
    15.0644  15.0645  15.1270  15.1271  15.1619  15.1617  15.1836  15.1834
    15.2140  15.2140  15.2649  15.2650  15.2878  15.2878  15.3466  15.3467
    15.4507  15.4508

     occupation numbers 
     1.0000   1.0000   1.0000   1.0000   1.0000   1.0000   1.0000   1.0000
     1.0000   1.0000   1.0000   1.0000   1.0000   1.0000   1.0000   1.0000
     1.0000   1.0000   1.0000   1.0000   1.0000   1.0000   1.0000   1.0000
     1.0000   1.0000   1.0000   1.0000   1.0000   1.0000   1.0000   1.0000
     1.0000   1.0000   1.0000   1.0000   1.0000   1.0000   1.0000   1.0000
     1.0000   1.0000   1.0000   1.0000   1.0000   1.0000   1.0000   1.0000
     1.0000   1.0000   1.0000   1.0000   1.0000   1.0000   1.0000   1.0000
     1.0000   1.0000   1.0000   1.0000   1.0000   1.0000   1.0000   1.0000
     1.0000   1.0000   1.0000   1.0000   1.0000   1.0000   1.0000   1.0000
     1.0000   1.0000   1.0000   1.0000   1.0000   1.0000   1.0000   1.0000
     1.0000   1.0000   1.0000   1.0000   1.0000   1.0000   1.0000   1.0000
     1.0000   1.0000   1.0000   1.0000   1.0000   1.0000   1.0000   1.0000
     1.0000   1.0000   1.0000   1.0000   1.0000   1.0000   1.0000   1.0000
     1.0000   1.0000   1.0000   1.0000   1.0000   1.0000   1.0000   1.0000
     1.0000   1.0000   1.0000   1.0000   1.0000   1.0000   1.0000   1.0000
     1.0000   1.0000   1.0000   1.0000   1.0000   1.0000   1.0000   1.0000
     1.0000   1.0000   1.0000   1.0000   1.0000   1.0000   1.0000   1.0000
     1.0000   1.0000   1.0000   1.0000   1.0000   1.0000   1.0000   1.0000
     1.0000   1.0000   1.0000   1.0000   1.0000   1.0000   1.0000   1.0000
     1.0000   1.0000   1.0000   1.0000   1.0000   1.0000   1.0000   1.0000
     1.0000   1.0000   1.0000   1.0000   1.0000   1.0000   1.0000   1.0000
     1.0000   1.0000   1.0000   1.0000   1.0000   1.0000   1.0000   1.0000
     1.0000   1.0000   1.0000   1.0000   1.0000   1.0000   1.0000   1.0000
     1.0000   1.0000   1.0000   1.0000   1.0000   1.0000   1.0000   1.0000
     1.0000   1.0000   1.0000   1.0000   1.0000   1.0000   1.0000   1.0000
     1.0000   1.0000   1.0000   1.0000   1.0000   1.0000   1.0000   1.0000
     1.0000   1.0000   1.0000   1.0000   1.0000   1.0000   1.0000   1.0000
     1.0000   1.0000   1.0000   1.0000   1.0000   1.0000   1.0000   1.0000
     1.0000   1.0000   1.0000   1.0000   1.0000   1.0000   1.0000   1.0000
     1.0000   1.0000   1.0000   1.0000   1.0000   1.0000   1.0000   1.0000
     1.0000   1.0000   1.0000   1.0000   1.0000   1.0000   1.0000   1.0000
     1.0000   1.0000   1.0000   1.0000   1.0000   1.0000   1.0000   1.0000
     1.0000   1.0000   1.0000   1.0000   1.0000   1.0000   1.0000   1.0000
     1.0000   1.0000   1.0000   1.0000   1.0000   1.0000   1.0000   1.0000
     1.0000   1.0000   1.0000   1.0000   1.0000   1.0000   1.0000   1.0000
     1.0000   1.0000   1.0000   1.0000   1.0000   1.0000   1.0000   1.0000
     1.0000   1.0000   1.0000   1.0000   1.0000   1.0000   1.0000   1.0000
     1.0000   1.0000   1.0000   1.0000   1.0000   1.0000   1.0000   1.0000
     1.0000   1.0000   1.0000   1.0000   1.0000   1.0000   1.0000   1.0000
     1.0000   1.0000   1.0000   1.0000   1.0000   1.0000   1.0000   1.0000
     1.0000   1.0000   1.0000   1.0000   1.0000   1.0000   1.0000   1.0000
     1.0000   1.0000   1.0000   1.0000   1.0000   1.0000   1.0000   1.0000
     1.0000   1.0000   1.0000   1.0000   1.0000   1.0000   1.0000   1.0000
     1.0000   1.0000   1.0000   1.0000   1.0000   1.0000   1.0000   1.0000
     1.0000   1.0000   1.0000   1.0000   1.0000   1.0000   1.0000   1.0000
     1.0000   1.0000   1.0000   1.0000   1.0000   1.0000   1.0000   1.0000
     1.0000   1.0000   1.0000   1.0000   1.0000   1.0000   1.0000   1.0000
     1.0000   1.0000   1.0000   1.0000   1.0000   1.0000   1.0000   1.0000
     1.0000   1.0000   1.0000   1.0000   1.0000   1.0000   1.0000   1.0000
     1.0000   1.0000   1.0000   1.0000   1.0000   1.0000   1.0000   1.0000
     1.0000   1.0000   1.0000   1.0000   1.0000   1.0000   1.0000   1.0000
     1.0000   1.0000   1.0000   1.0000   1.0000   1.0000   1.0000   1.0000
     1.0000   1.0000   1.0000   1.0000   1.0000   1.0000   1.0000   1.0000
     1.0000   1.0000   1.0000   1.0000   1.0000   1.0000   1.0000   1.0000
     1.0000   1.0000   1.0000   1.0000   1.0000   1.0000   1.0000   1.0000
     1.0000   1.0000   1.0000   1.0000   1.0000   1.0000   1.0000   1.0000
     1.0000   1.0000   1.0000   1.0000   1.0000   1.0000   1.0000   1.0000
     1.0000   1.0000   1.0000   1.0000   1.0000   1.0000   1.0000   1.0000
     1.0000   1.0000   1.0000   1.0000   1.0000   1.0000   1.0000   1.0000
     1.0000   1.0000   1.0000   1.0000   1.0000   1.0000   1.0000   1.0000
     1.0000   1.0000   1.0000   1.0000   1.0000   1.0000   1.0000   1.0000
     1.0000   1.0000   1.0000   1.0000   1.0000   1.0000   1.0000   1.0000
     1.0000   1.0000   1.0000   1.0000   1.0000   1.0000   1.0000   1.0000
     1.0000   1.0000   1.0000   1.0000   1.0000   1.0000   1.0000   1.0000
     1.0000   1.0000   1.0000   1.0000   1.0000   1.0000   1.0000   1.0000
     1.0000   1.0000   1.0000   1.0000   1.0000   1.0000   1.0000   1.0000
     1.0000   1.0000   1.0000   1.0000   1.0000   1.0000   1.0000   1.0000
     1.0000   1.0000   1.0000   1.0000   1.0000   1.0000   1.0000   1.0000
     1.0000   1.0000   1.0000   1.0000   1.0000   1.0000   1.0000   1.0000
     1.0000   1.0000   1.0000   1.0000   1.0000   1.0000   1.0000   1.0000
     1.0000   1.0000   1.0000   1.0000   1.0000   1.0000   1.0000   1.0000
     1.0000   1.0000   1.0000   1.0000   1.0000   1.0000   1.0000   1.0000
     1.0000   1.0000   1.0000   1.0000   1.0000   1.0000   1.0000   1.0000
     1.0000   1.0000   1.0000   1.0000   1.0000   1.0000   1.0000   1.0000
     1.0000   1.0000   1.0000   1.0000   1.0000   1.0000   1.0000   1.0000
     1.0000   1.0000   1.0000   1.0000   1.0000   1.0000   1.0000   1.0000
     1.0000   1.0000   1.0000   1.0000   1.0000   1.0000   1.0000   1.0000
     1.0000   1.0000   1.0000   1.0000   1.0000   1.0000   1.0000   1.0000
     1.0000   1.0000   1.0000   1.0000   1.0000   1.0000   1.0000   1.0000
     1.0000   1.0000   1.0000   1.0000   1.0000   1.0000   1.0000   1.0000
     1.0000   1.0000   1.0000   1.0000   1.0000   1.0000   1.0000   1.0000
     1.0000   1.0000   1.0000   1.0000   1.0000   1.0000   1.0000   1.0000
     1.0000   1.0000   1.0000   1.0000   1.0000   1.0000   1.0000   1.0000
     1.0000   1.0000   1.0000   1.0000   1.0000   1.0000   1.0000   1.0000
     1.0000   1.0000   1.0000   1.0000   1.0000   1.0000   1.0000   1.0000
     1.0000   1.0000   1.0000   1.0000   1.0000   1.0000   1.0000   1.0000
     1.0000   1.0000   1.0000   1.0000   1.0000   1.0000   1.0000   1.0000
     1.0000   1.0000   1.0000   1.0000   1.0000   1.0000   1.0000   1.0000
     1.0000   1.0000   1.0000   1.0000   1.0000   1.0000   1.0000   1.0000
     1.0000   1.0000   1.0000   1.0000   1.0000   1.0000   1.0000   1.0000
     1.0000   1.0000   1.0000   1.0000   1.0000   1.0000   1.0000   1.0000
     1.0000   1.0000   1.0000   1.0000   1.0000   1.0000   1.0000   1.0000
     1.0000   1.0000   1.0000   1.0000   1.0000   1.0000   1.0000   1.0000
     1.0000   1.0000   1.0000   1.0000   1.0000   1.0000   1.0000   1.0000
     1.0000   1.0000   1.0000   1.0000   1.0000   1.0000   1.0000   1.0000
     1.0000   1.0000   1.0000   1.0000   1.0000   1.0000   1.0000   1.0000
     1.0000   1.0000   1.0000   1.0000   1.0000   1.0000   1.0000   1.0000
     1.0000   1.0000   1.0000   1.0000   1.0000   1.0000   1.0000   1.0000
     1.0000   1.0000   1.0000   1.0000   1.0000   1.0000   1.0000   1.0000
     1.0000   1.0000   1.0000   1.0000   1.0000   1.0000   1.0000   1.0000
     1.0000   1.0000   1.0000   1.0000   1.0000   1.0000   1.0000   1.0000
     1.0000   1.0000   1.0000   1.0000   1.0000   1.0000   1.0000   1.0000
     1.0000   1.0000   1.0000   1.0000   1.0000   1.0000   1.0000   1.0000
     1.0000   1.0000   1.0000   1.0000   1.0000   1.0000   1.0000   1.0000
     1.0000   1.0000   1.0000   1.0000   1.0000   1.0000   1.0000   1.0000
     1.0000   1.0000   1.0000   1.0000   1.0000   1.0000   1.0000   1.0000
     1.0000   1.0000   1.0000   1.0000   1.0000   1.0000   1.0000   1.0000
     1.0000   1.0000   1.0000   1.0000   1.0000   1.0000   1.0000   1.0000
     1.0000   1.0000   1.0000   1.0000   1.0000   1.0000   1.0000   1.0000
     1.0000   1.0000   1.0000   1.0000   1.0000   1.0000   1.0000   1.0000
     1.0000   1.0000   1.0000   1.0000   1.0000   1.0000   1.0000   1.0000
     1.0000   1.0000   1.0000   1.0000   1.0000   1.0000   1.0000   1.0000
     1.0000   1.0000   1.0000   1.0000   1.0000   1.0000   1.0000   1.0000
     1.0000   1.0000   1.0000   1.0000   1.0000   1.0000   1.0000   1.0000
     1.0000   1.0000   1.0000   1.0000   1.0000   1.0000   1.0000   1.0000
     1.0000   1.0000   1.0000   1.0000   1.0000   1.0000   1.0000   1.0000
     1.0000   1.0000   1.0000   1.0000   1.0000   1.0000   1.0000   1.0000
     1.0000   1.0000   1.0000   1.0000   1.0000   1.0000   1.0000   1.0000
     1.0000   1.0000   1.0000   1.0000   1.0000   1.0000   1.0000   1.0000
     1.0000   1.0000   1.0000   1.0000   1.0000   1.0000   1.0000   1.0000
     1.0000   1.0000   1.0000   1.0000   1.0000   1.0000   1.0000   1.0000
     1.0000   1.0000   1.0000   1.0000   1.0000   1.0000   1.0000   1.0000
     1.0000   1.0000   1.0000   1.0000   1.0000   1.0000   1.0000   1.0000
     1.0000   1.0000   1.0000   1.0000   1.0000   1.0000   1.0000   1.0000
     1.0000   1.0000   1.0000   1.0000   1.0000   1.0000   1.0000   1.0000
     1.0000   1.0000   1.0000   1.0000   1.0000   1.0000   1.0000   1.0000
     1.0000   1.0000   1.0000   1.0000   1.0000   1.0000   1.0000   1.0000
     1.0000   1.0000   1.0000   1.0000   1.0000   1.0000   1.0000   1.0000
     1.0000   1.0000   1.0000   1.0000   1.0000   1.0000   1.0000   1.0000
     1.0000   1.0000   1.0000   1.0000   1.0000   1.0000   1.0000   1.0000
     1.0000   1.0000   1.0000   1.0000   1.0000   1.0000   1.0000   1.0000
     1.0000   1.0000   1.0000   1.0000   1.0000   1.0000   1.0000   1.0000
     1.0000   1.0000   1.0000   1.0000   1.0000   1.0000   1.0000   1.0000
[...]
     atom   67 type  1   force =  -212.51129202   31.94411588   -0.00009128
     atom   68 type  1   force =  -212.51126245  -31.94424062   -0.00000762
     atom   69 type  1   force =  -115.65641206 -115.65633251   -0.00008770
     atom   70 type  1   force =   -96.61903127 -198.61970589   -0.00008418
     atom   71 type  1   force =  -198.61968822  -96.61885385   -0.00002616
     atom   72 type  1   force =  -160.05920790 -160.05912213    0.00014903
     The core correction contribution to forces
     atom    1 type  1   force =     0.00910155    0.00910907   -0.00000085
     atom    2 type  1   force =     0.01569885   -0.00192306    0.00000055
     atom    3 type  1   force =    -0.00191570    0.01569978   -0.00000315
     atom    4 type  1   force =    -0.00268708   -0.00269603    0.00000329
     atom    5 type  1   force =     0.01546042    0.00014735    0.00000661
     atom    6 type  1   force =     0.01548295   -0.00014729    0.00000300
     atom    7 type  1   force =    -0.00139456    0.00005353    0.00000815
     atom    8 type  1   force =    -0.00140463   -0.00005039   -0.00000093
     atom    9 type  1   force =     0.01569900    0.00193589   -0.00000424
     atom   10 type  1   force =     0.00910911   -0.00910517   -0.00000189
     atom   11 type  1   force =    -0.00268585    0.00268543    0.00001308
     atom   12 type  1   force =    -0.00192902   -0.01570533   -0.00000213
     atom   13 type  1   force =     0.00015686    0.01546611   -0.00000487
     atom   14 type  1   force =     0.00005899   -0.00141206   -0.00000879
     atom   15 type  1   force =    -0.00013404    0.01547720   -0.00000186
     atom   16 type  1   force =    -0.00004020   -0.00140723   -0.00000188
     atom   17 type  1   force =    -0.00044205   -0.00044265   -0.00000055
     atom   18 type  1   force =    -0.00045379    0.00045886    0.00000251
     atom   19 type  1   force =     0.00045578   -0.00044732   -0.00000049
     atom   20 type  1   force =     0.00045477    0.00044526   -0.00000795
     atom   21 type  1   force =     0.00004357    0.00139434   -0.00000078
     atom   22 type  1   force =     0.00014079   -0.01547550    0.00000297
     atom   23 type  1   force =    -0.00006305    0.00140508    0.00000577
     atom   24 type  1   force =    -0.00013751   -0.01546337    0.00000766
     atom   25 type  1   force =     0.00192757    0.01570094   -0.00000323
     atom   26 type  1   force =     0.00267929   -0.00268722   -0.00000049
     atom   27 type  1   force =    -0.00910085    0.00910434   -0.00000011
     atom   28 type  1   force =    -0.01570594   -0.00193202   -0.00000853
     atom   29 type  1   force =     0.00140903    0.00005868    0.00000065
     atom   30 type  1   force =     0.00140164   -0.00005715    0.00001262
     atom   31 type  1   force =    -0.01548721    0.00014087   -0.00000342
     atom   32 type  1   force =    -0.01545570   -0.00014293   -0.00000236
     atom   33 type  1   force =     0.00268055    0.00268239    0.00000430
     atom   34 type  1   force =     0.00191576   -0.01571296   -0.00000599
     atom   35 type  1   force =    -0.01570895    0.00191397   -0.00000290
     atom   36 type  1   force =    -0.00910029   -0.00909829   -0.00000565
     atom   37 type  1   force =     0.00911015    0.00910388    0.00000089
     atom   38 type  1   force =     0.01571018   -0.00191683    0.00000305
     atom   39 type  1   force =    -0.00192265    0.01569820   -0.00000332
     atom   40 type  1   force =    -0.00269429   -0.00268104   -0.00000161
     atom   41 type  1   force =     0.01546337    0.00014410   -0.00000012
     atom   42 type  1   force =     0.01547312   -0.00014150   -0.00000981
     atom   43 type  1   force =    -0.00139459    0.00005413    0.00000179
     atom   44 type  1   force =    -0.00140912   -0.00006842   -0.00001188
     atom   45 type  1   force =     0.01570257    0.00193900   -0.00000739
     atom   46 type  1   force =     0.00910844   -0.00911686    0.00000173
     atom   47 type  1   force =    -0.00269045    0.00268290   -0.00000667
     atom   48 type  1   force =    -0.00192223   -0.01570262    0.00000417
     atom   49 type  1   force =     0.00015247    0.01547327   -0.00000196
     atom   50 type  1   force =     0.00006497   -0.00139884   -0.00000825
     atom   51 type  1   force =    -0.00014182    0.01547237    0.00000514
     atom   52 type  1   force =    -0.00004942   -0.00139982   -0.00001280
     atom   53 type  1   force =    -0.00045251   -0.00043909   -0.00000692
     atom   54 type  1   force =    -0.00045391    0.00045372    0.00000479
     atom   55 type  1   force =     0.00046221   -0.00044995   -0.00000231
     atom   56 type  1   force =     0.00045975    0.00044657   -0.00000146
     atom   57 type  1   force =     0.00004881    0.00140446   -0.00000366
     atom   58 type  1   force =     0.00013631   -0.01546503   -0.00000390
     atom   59 type  1   force =    -0.00005046    0.00139654    0.00000584
     atom   60 type  1   force =    -0.00014714   -0.01546755    0.00000380
     atom   61 type  1   force =     0.00191969    0.01570892   -0.00000106
     atom   62 type  1   force =     0.00268074   -0.00268644   -0.00000339
     atom   63 type  1   force =    -0.00909270    0.00909406   -0.00000046
     atom   64 type  1   force =    -0.01570436   -0.00193270   -0.00000058
     atom   65 type  1   force =     0.00140564    0.00005905    0.00000813
     atom   66 type  1   force =     0.00140233   -0.00006121   -0.00000698
     atom   67 type  1   force =    -0.01547639    0.00013692   -0.00001077
     atom   68 type  1   force =    -0.01546358   -0.00013434    0.00000420
     atom   69 type  1   force =     0.00268387    0.00268924   -0.00000392
     atom   70 type  1   force =     0.00191785   -0.01570668   -0.00000645
     atom   71 type  1   force =    -0.01570627    0.00192466    0.00000183
     atom   72 type  1   force =    -0.00910504   -0.00910377    0.00001188
     The Hubbard contrib.    to forces
     atom    1 type  1   force =     0.00000000    0.00000000    0.00000000
     atom    2 type  1   force =     0.00000000    0.00000000    0.00000000
     atom    3 type  1   force =     0.00000000    0.00000000    0.00000000
     atom    4 type  1   force =     0.00000000    0.00000000    0.00000000
     atom    5 type  1   force =     0.00000000    0.00000000    0.00000000
     atom    6 type  1   force =     0.00000000    0.00000000    0.00000000
     atom    7 type  1   force =     0.00000000    0.00000000    0.00000000
     atom    8 type  1   force =     0.00000000    0.00000000    0.00000000
     atom    9 type  1   force =     0.00000000    0.00000000    0.00000000
     atom   10 type  1   force =     0.00000000    0.00000000    0.00000000
     atom   11 type  1   force =     0.00000000    0.00000000    0.00000000
     atom   12 type  1   force =     0.00000000    0.00000000    0.00000000
     atom   13 type  1   force =     0.00000000    0.00000000    0.00000000
     atom   14 type  1   force =     0.00000000    0.00000000    0.00000000
     atom   15 type  1   force =     0.00000000    0.00000000    0.00000000
     atom   16 type  1   force =     0.00000000    0.00000000    0.00000000
     atom   17 type  1   force =     0.00000000    0.00000000    0.00000000
     atom   18 type  1   force =     0.00000000    0.00000000    0.00000000
     atom   19 type  1   force =     0.00000000    0.00000000    0.00000000
     atom   20 type  1   force =     0.00000000    0.00000000    0.00000000
     atom   21 type  1   force =     0.00000000    0.00000000    0.00000000
     atom   22 type  1   force =     0.00000000    0.00000000    0.00000000
     atom   23 type  1   force =     0.00000000    0.00000000    0.00000000
     atom   24 type  1   force =     0.00000000    0.00000000    0.00000000
     atom   25 type  1   force =     0.00000000    0.00000000    0.00000000
     atom   26 type  1   force =     0.00000000    0.00000000    0.00000000
     atom   27 type  1   force =     0.00000000    0.00000000    0.00000000
     atom   28 type  1   force =     0.00000000    0.00000000    0.00000000
     atom   29 type  1   force =     0.00000000    0.00000000    0.00000000
     atom   30 type  1   force =     0.00000000    0.00000000    0.00000000
     atom   31 type  1   force =     0.00000000    0.00000000    0.00000000
     atom   32 type  1   force =     0.00000000    0.00000000    0.00000000
     atom   33 type  1   force =     0.00000000    0.00000000    0.00000000
     atom   34 type  1   force =     0.00000000    0.00000000    0.00000000
     atom   35 type  1   force =     0.00000000    0.00000000    0.00000000
     atom   36 type  1   force =     0.00000000    0.00000000    0.00000000
     atom   37 type  1   force =     0.00000000    0.00000000    0.00000000
     atom   38 type  1   force =     0.00000000    0.00000000    0.00000000
     atom   39 type  1   force =     0.00000000    0.00000000    0.00000000
     atom   40 type  1   force =     0.00000000    0.00000000    0.00000000
     atom   41 type  1   force =     0.00000000    0.00000000    0.00000000
     atom   42 type  1   force =     0.00000000    0.00000000    0.00000000
     atom   43 type  1   force =     0.00000000    0.00000000    0.00000000
     atom   44 type  1   force =     0.00000000    0.00000000    0.00000000
     atom   45 type  1   force =     0.00000000    0.00000000    0.00000000
     atom   46 type  1   force =     0.00000000    0.00000000    0.00000000
     atom   47 type  1   force =     0.00000000    0.00000000    0.00000000
     atom   48 type  1   force =     0.00000000    0.00000000    0.00000000
     atom   49 type  1   force =     0.00000000    0.00000000    0.00000000
     atom   50 type  1   force =     0.00000000    0.00000000    0.00000000
     atom   51 type  1   force =     0.00000000    0.00000000    0.00000000
     atom   52 type  1   force =     0.00000000    0.00000000    0.00000000
     atom   53 type  1   force =     0.00000000    0.00000000    0.00000000
     atom   54 type  1   force =     0.00000000    0.00000000    0.00000000
     atom   55 type  1   force =     0.00000000    0.00000000    0.00000000
     atom   56 type  1   force =     0.00000000    0.00000000    0.00000000
     atom   57 type  1   force =     0.00000000    0.00000000    0.00000000
     atom   58 type  1   force =     0.00000000    0.00000000    0.00000000
     atom   59 type  1   force =     0.00000000    0.00000000    0.00000000
     atom   60 type  1   force =     0.00000000    0.00000000    0.00000000
     atom   61 type  1   force =     0.00000000    0.00000000    0.00000000
     atom   62 type  1   force =     0.00000000    0.00000000    0.00000000
     atom   63 type  1   force =     0.00000000    0.00000000    0.00000000
     atom   64 type  1   force =     0.00000000    0.00000000    0.00000000
     atom   65 type  1   force =     0.00000000    0.00000000    0.00000000
     atom   66 type  1   force =     0.00000000    0.00000000    0.00000000
     atom   67 type  1   force =     0.00000000    0.00000000    0.00000000
     atom   68 type  1   force =     0.00000000    0.00000000    0.00000000
     atom   69 type  1   force =     0.00000000    0.00000000    0.00000000
     atom   70 type  1   force =     0.00000000    0.00000000    0.00000000
     atom   71 type  1   force =     0.00000000    0.00000000    0.00000000
     atom   72 type  1   force =     0.00000000    0.00000000    0.00000000
     The SCF correction term to forces
     atom    1 type  1   force =     0.03199618    0.03207204   -0.00000999
     atom    2 type  1   force =     0.08927663    0.01607246   -0.00006332
     atom    3 type  1   force =     0.01589674    0.08925691    0.00000173
     atom    4 type  1   force =     0.05494694    0.05512932   -0.00003555
     atom    5 type  1   force =     0.11562061    0.00627305   -0.00003628
     atom    6 type  1   force =     0.11569777   -0.00632782    0.00004518
     atom    7 type  1   force =     0.07540042    0.01808766    0.00006106
     atom    8 type  1   force =     0.07548054   -0.01793105    0.00005743
     atom    9 type  1   force =     0.08926021   -0.01606269    0.00004494
     atom   10 type  1   force =     0.03213829   -0.03220827   -0.00007217
     atom   11 type  1   force =     0.05498863   -0.05515085    0.00002550
     atom   12 type  1   force =     0.01593054   -0.08921365    0.00008519
     atom   13 type  1   force =     0.00620783    0.11556148    0.00000461
     atom   14 type  1   force =     0.01787417    0.07558345    0.00004008
     atom   15 type  1   force =    -0.00621447    0.11557375    0.00004686
     atom   16 type  1   force =    -0.01786918    0.07567504    0.00000549
     atom   17 type  1   force =     0.02527804    0.02546353   -0.00001566
     atom   18 type  1   force =     0.02522801   -0.02533045    0.00000116
     atom   19 type  1   force =    -0.02525501    0.02534697   -0.00000446
     atom   20 type  1   force =    -0.02521690   -0.02537974   -0.00003809
     atom   21 type  1   force =     0.01786467   -0.07562509    0.00004228
     atom   22 type  1   force =     0.00621791   -0.11561050    0.00003266
     atom   23 type  1   force =    -0.01795817   -0.07559107   -0.00006570
     atom   24 type  1   force =    -0.00632985   -0.11561495    0.00001765
     atom   25 type  1   force =    -0.01597541    0.08924706    0.00000021
     atom   26 type  1   force =    -0.05508601    0.05513337   -0.00000478
     atom   27 type  1   force =    -0.03218991    0.03209980    0.00004235
     atom   28 type  1   force =    -0.08927999    0.01602029    0.00005725
     atom   29 type  1   force =    -0.07569529    0.01805801   -0.00003442
     atom   30 type  1   force =    -0.07555349   -0.01799708   -0.00002503
     atom   31 type  1   force =    -0.11568763    0.00635562    0.00001812
     atom   32 type  1   force =    -0.11562126   -0.00621146   -0.00005297
     atom   33 type  1   force =    -0.05499706   -0.05506585   -0.00001225
     atom   34 type  1   force =    -0.01606151   -0.08928786   -0.00002704
     atom   35 type  1   force =    -0.08916263   -0.01601571    0.00001882
     atom   36 type  1   force =    -0.03208215   -0.03211855   -0.00005067
     atom   37 type  1   force =     0.03202289    0.03205110    0.00002287
     atom   38 type  1   force =     0.08919714    0.01604952    0.00003191
     atom   39 type  1   force =     0.01593571    0.08927887    0.00000351
     atom   40 type  1   force =     0.05498443    0.05513567    0.00001245
     atom   41 type  1   force =     0.11561427    0.00633961   -0.00000514
     atom   42 type  1   force =     0.11558915   -0.00629397   -0.00001902
     atom   43 type  1   force =     0.07543570    0.01796401   -0.00001543
     atom   44 type  1   force =     0.07551281   -0.01793014   -0.00004724
     atom   45 type  1   force =     0.08926387   -0.01612765    0.00005962
     atom   46 type  1   force =     0.03204641   -0.03205612    0.00000952
     atom   47 type  1   force =     0.05504317   -0.05513706   -0.00009341
     atom   48 type  1   force =     0.01598683   -0.08937583    0.00003844
     atom   49 type  1   force =     0.00621109    0.11557017    0.00004617
     atom   50 type  1   force =     0.01782375    0.07558443   -0.00001823
     atom   51 type  1   force =    -0.00620181    0.11554580    0.00001307
     atom   52 type  1   force =    -0.01789669    0.07561714   -0.00001790
     atom   53 type  1   force =     0.02517478    0.02539581    0.00002114
     atom   54 type  1   force =     0.02524693   -0.02533993   -0.00004306
     atom   55 type  1   force =    -0.02529194    0.02537824   -0.00000335
     atom   56 type  1   force =    -0.02532879   -0.02536471    0.00003152
     atom   57 type  1   force =     0.01777884   -0.07566174   -0.00008925
     atom   58 type  1   force =     0.00620388   -0.11562383   -0.00004485
     atom   59 type  1   force =    -0.01793163   -0.07560134    0.00000697
     atom   60 type  1   force =    -0.00638793   -0.11560412   -0.00004832
     atom   61 type  1   force =    -0.01599198    0.08924437    0.00006971
     atom   62 type  1   force =    -0.05500317    0.05505343   -0.00002429
     atom   63 type  1   force =    -0.03216101    0.03210422   -0.00005824
     atom   64 type  1   force =    -0.08930094    0.01601587    0.00007194
     atom   65 type  1   force =    -0.07560407    0.01796724    0.00003057
     atom   66 type  1   force =    -0.07554297   -0.01797272   -0.00004662
     atom   67 type  1   force =    -0.11565840    0.00641198    0.00000980
     atom   68 type  1   force =    -0.11559789   -0.00628521    0.00004161
     atom   69 type  1   force =    -0.05508012   -0.05511924    0.00005645
     atom   70 type  1   force =    -0.01596539   -0.08928083    0.00003723
     atom   71 type  1   force =    -0.08929399   -0.01610254    0.00004636
     atom   72 type  1   force =    -0.03205286   -0.03213629   -0.00006246

     Total force =     0.105050     Total SCF correction =     0.719622
     SCF correction compared to forces is large: reduce conv_thr to get better values

     Writing all to output data dir ./calc.save/

     init_run     :     41.91s CPU     42.47s WALL (       1 calls)
     electrons    :   6689.68s CPU   6733.85s WALL (       1 calls)
     forces       :     99.13s CPU     99.89s WALL (       1 calls)

     Called by init_run:
     wfcinit      :     38.39s CPU     38.90s WALL (       1 calls)
     wfcinit:wfcr :     37.65s CPU     38.10s WALL (       2 calls)
     potinit      :      0.34s CPU      0.34s WALL (       1 calls)
     hinit0       :      2.51s CPU      2.53s WALL (       1 calls)

     Called by electrons:
     c_bands      :   6596.08s CPU   6639.15s WALL (       9 calls)
     sum_band     :     92.99s CPU     93.80s WALL (       9 calls)
     v_of_rho     :      0.44s CPU      0.45s WALL (       9 calls)
     v_h          :      0.02s CPU      0.02s WALL (       9 calls)
     v_xc         :      0.46s CPU      0.47s WALL (      10 calls)
     mix_rho      :      0.12s CPU      0.12s WALL (       9 calls)

     Called by c_bands:
     init_us_2    :      0.60s CPU      0.62s WALL (      40 calls)
     init_us_2:cp :      0.60s CPU      0.62s WALL (      40 calls)
     ccgdiagg     :   6263.61s CPU   6303.55s WALL (      22 calls)
     wfcrot       :    368.41s CPU    371.96s WALL (      20 calls)

     Called by sum_band:
     sum_band:wei :      0.02s CPU      0.02s WALL (       9 calls)
     sum_band:loo :     92.85s CPU     93.66s WALL (       9 calls)
     sum_band:buf :      0.31s CPU      0.31s WALL (      18 calls)
     sum_band:ini :      0.27s CPU      0.27s WALL (      18 calls)

     Called by *cgdiagg:
     h_psi        :   3894.45s CPU   3921.48s WALL (  118677 calls)

     Called by h_psi:
     h_psi:calbec :   1488.26s CPU   1498.00s WALL (  118677 calls)
     vloc_psi     :    839.92s CPU    849.77s WALL (  118677 calls)
     add_vuspsi   :   1563.92s CPU   1571.64s WALL (  118677 calls)
     hs_1psi      :   3594.64s CPU   3618.38s WALL (  118657 calls)
     s_1psi       :   1403.35s CPU   1412.39s WALL (  118657 calls)

     General routines
     calbec       :   2911.04s CPU   2930.66s WALL (  237342 calls)
     fft          :      1.57s CPU      1.58s WALL (     125 calls)
     ffts         :      0.09s CPU      0.09s WALL (      36 calls)
     fftw         :    853.35s CPU    863.06s WALL (  666028 calls)

     Parallel routines
     fft_scatt_xy :     46.99s CPU     47.43s WALL (  666189 calls)
     fft_scatt_yz :    543.37s CPU    550.70s WALL (  666189 calls)

     PWSCF        :      1h54m CPU      1h55m WALL


   This run was terminated on:   1:52:37  24Feb2023            

=------------------------------------------------------------------------------=
   JOB DONE.
=------------------------------------------------------------------------------=
