
     Program PWSCF v.7.0 starts on 23Feb2023 at 23:57:43 

     This program is part of the open-source Quantum ESPRESSO suite
     for quantum simulation of materials; please cite
         "P. Giannozzi et al., J. Phys.:Condens. Matter 21 395502 (2009);
         "P. Giannozzi et al., J. Phys.:Condens. Matter 29 465901 (2017);
         "P. Giannozzi et al., J. Chem. Phys. 152 154105 (2020);
          URL http://www.quantum-espresso.org", 
     in publications or presentations arising from this work. More details at
     http://www.quantum-espresso.org/quote

     Parallel version (MPI), running on   240 processors

     MPI processes distributed on    20 nodes
     R & G space division:  proc/nbgrp/npool/nimage =     240
     165240 MiB available memory on the printing compute node when the environment starts

     Reading input from pw.inp
Warning: card &CELL ignored
Warning: card / ignored

     Current dimensions of program PWSCF are:
     Max number of different atomic species (ntypx) = 10
     Max number of k-points (npk) =  40000
     Max angular momentum in pseudopotentials (lmaxx) =  4
     Message from routine cell_base_init:
     DEPRECATED: use true lattice parameter, not A to a.u. conversion factor

     IMPORTANT: XC functional enforced from input :
     Exchange-correlation= HSE
                           (   1   4  12   4   0   0   0)
     EXX-fraction              =        0.25
     Any further DFT definition will be discarded
     Please, verify this is what you really want

     Message from routine setup :
     BEWARE: nonlinear core correction is not consistent with hybrid XC
     Found identity + (  0.0000 -0.5000  0.0000) symmetry
     This is a supercell, fractional translations are disabled
     EXX: q-point mesh:     2    2    1
     EXX: setup a grid of 4 q-points centered on each k-point
     (k+q)-points:
   0.0142664   0.0222913   0.0000000         1    1
   0.0142664  -0.0222913   0.0000000         2    1
  -0.0142664   0.0222913   0.0000000         2   -1
  -0.0142664  -0.0222913  -0.0000000         1   -1

     Subspace diagonalization in iterative solution of the eigenvalue problem:
     one sub-group per band group will be used
     scalapack distributed-memory algorithm (size of sub-group: 15* 15 procs)


     Parallelization info
     --------------------
     sticks:   dense  smooth     PW     G-vecs:    dense   smooth      PW
     Min          20      20      5                 3534     3534     459
     Max          21      21      6                 3575     3575     484
     Sum        4993    4993   1303               854265   854265  112889

     Using Pencil Decomposition



     bravais-lattice index     =            0
     lattice parameter (alat)  =       1.0000  a.u.
     unit-cell volume          =    8840.2240 (a.u.)^3
     number of atoms/cell      =           96
     number of atomic types    =            2
     number of electrons       =       768.00
     number of Kohn-Sham states=          461
     kinetic-energy cutoff     =      80.0000  Ry
     charge density cutoff     =     320.0000  Ry
     cutoff for Fock operator  =     320.0000  Ry
     scf convergence threshold =      1.0E-02
     mixing beta               =       0.3000
     number of iterations used =            8  TF        mixing
     Exchange-correlation= HSE
                           (   1   4  12   4   0   0   0)
     EXX-fraction              =        0.25

     celldm(1)=   1.000000  celldm(2)=   0.000000  celldm(3)=   0.000000
     celldm(4)=   0.000000  celldm(5)=   0.000000  celldm(6)=   0.000000

     crystal axes: (cart. coord. in units of alat)
               a(1) = (  17.523698   0.000000   0.000000 )  
               a(2) = (   0.000000  11.215115   0.000000 )  
               a(3) = (   0.000000   0.000000  44.981483 )  

     reciprocal axes: (cart. coord. in units 2 pi/alat)
               b(1) = (  0.057066  0.000000  0.000000 )  
               b(2) = (  0.000000  0.089165  0.000000 )  
               b(3) = (  0.000000  0.000000  0.022231 )  


     PseudoPot. # 1 for O  read from file:
     .././08_O_6_1.2_1.4_pbe_n_v1.0.upf
     MD5 check sum: a8b7f44dbbd6106bf79c6036dc5c6a43
     Pseudo is Norm-conserving + core correction, Zval =  6.0
     Generated using ONCVPSP code by D. R. Hamann
     Using radial grid of  934 points,  5 beta functions with: 
                l(1) =   0
                l(2) =   0
                l(3) =   1
                l(4) =   1
                l(5) =   2

     PseudoPot. # 2 for Ti read from file:
     .././22_Ti_12_2.0_2.8_pbe_n_v1.0.upf
     MD5 check sum: 5292e08a1afa329970694609a7514cd4
     Pseudo is Norm-conserving + core correction, Zval = 12.0
     Generated using ONCVPSP code by D. R. Hamann
     Using radial grid of 1584 points,  6 beta functions with: 
                l(1) =   0
                l(2) =   0
                l(3) =   1
                l(4) =   1
                l(5) =   2
                l(6) =   2

     atomic species   valence    mass     pseudopotential
        O              6.00    15.99900     O ( 1.00)
        Ti            12.00    47.86700     Ti( 1.00)

     No symmetry found



   Cartesian axes

     site n.     atom                  positions (alat units)
         1           O   tau(   1) = (   2.6719896   0.0000000   9.8295544  )
         2           O   tau(   2) = (   6.0898595   0.0000000  13.2473047  )
         3           O   tau(   3) = (   7.0529141   2.8037788   8.8663793  )
         4           O   tau(   4) = (   1.7089351   2.8037788   5.4486306  )
         5           O   tau(   5) = (   2.6719896   0.0000000  18.5914035  )
         6           O   tau(   6) = (   6.0898595   0.0000000  22.0091537  )
         7           O   tau(   7) = (   7.0529141   2.8037788  17.6282284  )
         8           O   tau(   8) = (   1.7089351   2.8037788  14.2104797  )
         9           O   tau(   9) = (   2.6719896   0.0000000  27.3532526  )
        10           O   tau(  10) = (   6.0898595   0.0000000  30.7710028  )
        11           O   tau(  11) = (   7.0529141   2.8037788  26.3900774  )
        12           O   tau(  12) = (   1.7089351   2.8037788  22.9723288  )
        13           O   tau(  13) = (   2.6719896   0.0000000  36.1151017  )
        14           O   tau(  14) = (   6.0898595   0.0000000  39.5328519  )
        15           O   tau(  15) = (   7.0529141   2.8037788  35.1519265  )
        16           O   tau(  16) = (   1.7089351   2.8037788  31.7341779  )
        17           O   tau(  17) = (   2.6719896   5.6075576   9.8295544  )
        18           O   tau(  18) = (   6.0898595   5.6075576  13.2473047  )
        19           O   tau(  19) = (   7.0529141   8.4113364   8.8663793  )
        20           O   tau(  20) = (   1.7089351   8.4113364   5.4486306  )
        21           O   tau(  21) = (   2.6719896   5.6075576  18.5914035  )
        22           O   tau(  22) = (   6.0898595   5.6075576  22.0091537  )
        23           O   tau(  23) = (   7.0529141   8.4113364  17.6282284  )
        24           O   tau(  24) = (   1.7089351   8.4113364  14.2104797  )
        25           O   tau(  25) = (   2.6719896   5.6075576  27.3532526  )
        26           O   tau(  26) = (   6.0898595   5.6075576  30.7710028  )
        27           O   tau(  27) = (   7.0529141   8.4113364  26.3900774  )
        28           O   tau(  28) = (   1.7089351   8.4113364  22.9723288  )
        29           O   tau(  29) = (   2.6719896   5.6075576  36.1151017  )
        30           O   tau(  30) = (   6.0898595   5.6075576  39.5328519  )
        31           O   tau(  31) = (   7.0529141   8.4113364  35.1519265  )
        32           O   tau(  32) = (   1.7089351   8.4113364  31.7341779  )
        33           O   tau(  33) = (  11.4338387   0.0000000   9.8295544  )
        34           O   tau(  34) = (  14.8517086   0.0000000  13.2473047  )
        35           O   tau(  35) = (  15.8147632   2.8037788   8.8663793  )
        36           O   tau(  36) = (  10.4707842   2.8037788   5.4486306  )
        37           O   tau(  37) = (  11.4338387   0.0000000  18.5914035  )
        38           O   tau(  38) = (  14.8517086   0.0000000  22.0091537  )
        39           O   tau(  39) = (  15.8147632   2.8037788  17.6282284  )
        40           O   tau(  40) = (  10.4707842   2.8037788  14.2104797  )
        41           O   tau(  41) = (  11.4338387   0.0000000  27.3532526  )
        42           O   tau(  42) = (  14.8517086   0.0000000  30.7710028  )
        43           O   tau(  43) = (  15.8147632   2.8037788  26.3900774  )
        44           O   tau(  44) = (  10.4707842   2.8037788  22.9723288  )
        45           O   tau(  45) = (  11.4338387   0.0000000  36.1151017  )
        46           O   tau(  46) = (  14.8517086   0.0000000  39.5328519  )
        47           O   tau(  47) = (  15.8147632   2.8037788  35.1519265  )
        48           O   tau(  48) = (  10.4707842   2.8037788  31.7341779  )
        49           O   tau(  49) = (  11.4338387   5.6075576   9.8295544  )
        50           O   tau(  50) = (  14.8517086   5.6075576  13.2473047  )
        51           O   tau(  51) = (  15.8147632   8.4113364   8.8663793  )
        52           O   tau(  52) = (  10.4707842   8.4113364   5.4486306  )
        53           O   tau(  53) = (  11.4338387   5.6075576  18.5914035  )
        54           O   tau(  54) = (  14.8517086   5.6075576  22.0091537  )
        55           O   tau(  55) = (  15.8147632   8.4113364  17.6282284  )
        56           O   tau(  56) = (  10.4707842   8.4113364  14.2104797  )
        57           O   tau(  57) = (  11.4338387   5.6075576  27.3532526  )
        58           O   tau(  58) = (  14.8517086   5.6075576  30.7710028  )
        59           O   tau(  59) = (  15.8147632   8.4113364  26.3900774  )
        60           O   tau(  60) = (  10.4707842   8.4113364  22.9723288  )
        61           O   tau(  61) = (  11.4338387   5.6075576  36.1151017  )
        62           O   tau(  62) = (  14.8517086   5.6075576  39.5328519  )
        63           O   tau(  63) = (  15.8147632   8.4113364  35.1519265  )
        64           O   tau(  64) = (  10.4707842   8.4113364  31.7341779  )
        65           Ti  tau(  65) = (   0.0000000   0.0000000   7.1575050  )
        66           Ti  tau(  66) = (   4.3809245   2.8037788  11.5384296  )
        67           Ti  tau(  67) = (   0.0000000   0.0000000  15.9193541  )
        68           Ti  tau(  68) = (   4.3809245   2.8037788  20.3002787  )
        69           Ti  tau(  69) = (   0.0000000   0.0000000  24.6812032  )
        70           Ti  tau(  70) = (   4.3809245   2.8037788  29.0621278  )
        71           Ti  tau(  71) = (   0.0000000   0.0000000  33.4430523  )
        72           Ti  tau(  72) = (   4.3809245   2.8037788  37.8239769  )
        73           Ti  tau(  73) = (   0.0000000   5.6075576   7.1575050  )
        74           Ti  tau(  74) = (   4.3809245   8.4113364  11.5384296  )
        75           Ti  tau(  75) = (   0.0000000   5.6075576  15.9193541  )
        76           Ti  tau(  76) = (   4.3809245   8.4113364  20.3002787  )
        77           Ti  tau(  77) = (   0.0000000   5.6075576  24.6812032  )
        78           Ti  tau(  78) = (   4.3809245   8.4113364  29.0621278  )
        79           Ti  tau(  79) = (   0.0000000   5.6075576  33.4430523  )
        80           Ti  tau(  80) = (   4.3809245   8.4113364  37.8239769  )
        81           Ti  tau(  81) = (   8.7618491   0.0000000   7.1575050  )
        82           Ti  tau(  82) = (  13.1427735   2.8037788  11.5384296  )
        83           Ti  tau(  83) = (   8.7618491   0.0000000  15.9193541  )
        84           Ti  tau(  84) = (  13.1427735   2.8037788  20.3002787  )
        85           Ti  tau(  85) = (   8.7618491   0.0000000  24.6812032  )
        86           Ti  tau(  86) = (  13.1427735   2.8037788  29.0621278  )
        87           Ti  tau(  87) = (   8.7618491   0.0000000  33.4430523  )
        88           Ti  tau(  88) = (  13.1427735   2.8037788  37.8239769  )
        89           Ti  tau(  89) = (   8.7618491   5.6075576   7.1575050  )
        90           Ti  tau(  90) = (  13.1427735   8.4113364  11.5384296  )
        91           Ti  tau(  91) = (   8.7618491   5.6075576  15.9193541  )
        92           Ti  tau(  92) = (  13.1427735   8.4113364  20.3002787  )
        93           Ti  tau(  93) = (   8.7618491   5.6075576  24.6812032  )
        94           Ti  tau(  94) = (  13.1427735   8.4113364  29.0621278  )
        95           Ti  tau(  95) = (   8.7618491   5.6075576  33.4430523  )
        96           Ti  tau(  96) = (  13.1427735   8.4113364  37.8239769  )

     number of k points=     2  Gaussian smearing, width (Ry)=  0.0037
                       cart. coord. in units 2pi/alat
        k(    1) = (   0.0142664   0.0222913   0.0000000), wk =   1.0000000
        k(    2) = (   0.0142664  -0.0222913   0.0000000), wk =   1.0000000

     Dense  grid:   854265 G-vectors     FFT dimensions: ( 100,  64, 270)

     Estimated max dynamical RAM per process >     305.94 MB

     Estimated total dynamical RAM >      71.71 GB

     Initial potential from superposition of free atoms

     starting charge     767.9490, renormalised to     768.0000
     Starting wfcs are  576 randomized atomic wfcs

     total cpu time spent up to now is        3.6 secs

     per-process dynamical memory:    99.0 Mb

     Self-consistent Calculation

     iteration #  1     ecut=    80.00 Ry     beta= 0.30
     Davidson diagonalization with overlap
     ethr =  1.00E-02,  avg # of iterations =  2.0

     total cpu time spent up to now is        8.1 secs

     total energy              =   -5880.52984776 Ry
     estimated scf accuracy    <      47.37593550 Ry

     iteration #  2     ecut=    80.00 Ry     beta= 0.30
     Davidson diagonalization with overlap
     ethr =  6.17E-03,  avg # of iterations =  1.0

     total cpu time spent up to now is       12.1 secs

     total energy              =   -5876.56104784 Ry
     estimated scf accuracy    <      14.40907970 Ry

     iteration #  3     ecut=    80.00 Ry     beta= 0.30
     Davidson diagonalization with overlap
     ethr =  1.88E-03,  avg # of iterations =  6.0

     total cpu time spent up to now is       19.2 secs

     total energy              =   -5880.60415859 Ry
     estimated scf accuracy    <       7.91401208 Ry

     iteration #  4     ecut=    80.00 Ry     beta= 0.30
     Davidson diagonalization with overlap
     ethr =  1.03E-03,  avg # of iterations =  2.0

     total cpu time spent up to now is       23.4 secs

     total energy              =   -5881.25521326 Ry
     estimated scf accuracy    <       1.11326809 Ry

     iteration #  5     ecut=    80.00 Ry     beta= 0.30
     Davidson diagonalization with overlap
     ethr =  1.45E-04,  avg # of iterations =  5.0

     total cpu time spent up to now is       30.4 secs

     total energy              =   -5881.46355312 Ry
     estimated scf accuracy    <       1.32646995 Ry

     iteration #  6     ecut=    80.00 Ry     beta= 0.30
     Davidson diagonalization with overlap
     ethr =  1.45E-04,  avg # of iterations =  2.0

     total cpu time spent up to now is       34.8 secs

     total energy              =   -5881.56091751 Ry
     estimated scf accuracy    <       0.26498273 Ry

     iteration #  7     ecut=    80.00 Ry     beta= 0.30
     Davidson diagonalization with overlap
     ethr =  3.45E-05,  avg # of iterations = 11.5

     total cpu time spent up to now is       41.5 secs

     total energy              =   -5881.59065337 Ry
     estimated scf accuracy    <       0.20119721 Ry

     iteration #  8     ecut=    80.00 Ry     beta= 0.30
     Davidson diagonalization with overlap
     ethr =  2.62E-05,  avg # of iterations =  2.0

     total cpu time spent up to now is       45.7 secs

     total energy              =   -5881.59573277 Ry
     estimated scf accuracy    <       0.19127035 Ry

     iteration #  9     ecut=    80.00 Ry     beta= 0.30
     Davidson diagonalization with overlap
     ethr =  2.49E-05,  avg # of iterations =  1.5

     total cpu time spent up to now is       49.7 secs

     total energy              =   -5881.59539210 Ry
     estimated scf accuracy    <       0.17858944 Ry

     iteration # 10     ecut=    80.00 Ry     beta= 0.30
     Davidson diagonalization with overlap
     ethr =  2.33E-05,  avg # of iterations =  2.0

     total cpu time spent up to now is       54.1 secs

     total energy              =   -5881.59644982 Ry
     estimated scf accuracy    <       0.17862149 Ry

     iteration # 11     ecut=    80.00 Ry     beta= 0.30
     Davidson diagonalization with overlap
     ethr =  2.33E-05,  avg # of iterations =  1.0

     total cpu time spent up to now is       57.9 secs

     total energy              =   -5881.59264411 Ry
     estimated scf accuracy    <       0.13991817 Ry

     iteration # 12     ecut=    80.00 Ry     beta= 0.30
     Davidson diagonalization with overlap
     ethr =  1.82E-05,  avg # of iterations =  5.0

     negative rho (up, down):  5.519E-02 0.000E+00

     total cpu time spent up to now is       62.9 secs

     total energy              =   -5881.55468117 Ry
     estimated scf accuracy    <       0.13589407 Ry

     iteration # 13     ecut=    80.00 Ry     beta= 0.30
     Davidson diagonalization with overlap
     c_bands:  4 eigenvalues not converged
     c_bands:  4 eigenvalues not converged
     ethr =  1.77E-05,  avg # of iterations = 20.0

     negative rho (up, down):  3.455E-02 0.000E+00

     total cpu time spent up to now is       72.9 secs

     total energy              =   -5881.59769643 Ry
     estimated scf accuracy    <       0.08739567 Ry

     iteration # 14     ecut=    80.00 Ry     beta= 0.30
     Davidson diagonalization with overlap
     ethr =  1.14E-05,  avg # of iterations = 17.0

     negative rho (up, down):  1.904E-02 0.000E+00

     total cpu time spent up to now is       80.1 secs

     total energy              =   -5881.56233370 Ry
     estimated scf accuracy    <       0.15088745 Ry

     iteration # 15     ecut=    80.00 Ry     beta= 0.30
     Davidson diagonalization with overlap
     ethr =  1.14E-05,  avg # of iterations =  4.5

     negative rho (up, down):  9.343E-03 0.000E+00

     total cpu time spent up to now is       85.0 secs

     total energy              =   -5881.57666760 Ry
     estimated scf accuracy    <       0.01950887 Ry

     iteration # 16     ecut=    80.00 Ry     beta= 0.30
     Davidson diagonalization with overlap
     ethr =  2.54E-06,  avg # of iterations =  7.0

     negative rho (up, down):  7.565E-03 0.000E+00

     total cpu time spent up to now is       92.6 secs

     total energy              =   -5881.57113547 Ry
     estimated scf accuracy    <       0.03600143 Ry

     iteration # 17     ecut=    80.00 Ry     beta= 0.30
     Davidson diagonalization with overlap
     c_bands:  1 eigenvalues not converged
     ethr =  2.54E-06,  avg # of iterations = 13.5

     negative rho (up, down):  2.082E-03 0.000E+00

     total cpu time spent up to now is      101.3 secs

     total energy              =   -5881.57617591 Ry
     estimated scf accuracy    <       0.02416811 Ry

     iteration # 18     ecut=    80.00 Ry     beta= 0.30
     Davidson diagonalization with overlap
     ethr =  2.54E-06,  avg # of iterations =  8.5

     total cpu time spent up to now is      107.0 secs

     End of self-consistent calculation

          k = 0.0143 0.0223 0.0000 (106809 PWs)   bands (ev):

   -51.5600 -51.5579 -51.5552 -51.5535 -51.5307 -51.5298 -51.5285 -51.5277
   -51.5144 -51.5138 -51.5137 -51.5134 -51.4871 -51.4864 -51.4864 -51.4861
   -51.4719 -51.4717 -51.4711 -51.4709 -51.4445 -51.4444 -51.4438 -51.4435
   -51.1999 -51.1974 -51.1953 -51.1947 -51.1730 -51.1704 -51.1684 -51.1677
   -28.0555 -28.0541 -28.0520 -28.0512 -28.0075 -28.0069 -28.0067 -28.0064
   -27.9829 -27.9828 -27.9825 -27.9823 -27.8632 -27.8627 -27.8577 -27.8572
   -27.8159 -27.8144 -27.8133 -27.8104 -27.7811 -27.7810 -27.7795 -27.7778
   -27.7754 -27.7747 -27.7730 -27.7718 -27.7560 -27.7547 -27.7545 -27.7542
   -27.7470 -27.7464 -27.7462 -27.7447 -27.7429 -27.7371 -27.7357 -27.7324
   -27.7167 -27.7161 -27.7159 -27.7153 -27.7116 -27.7110 -27.7089 -27.7087
   -27.7084 -27.7083 -27.7079 -27.7076 -27.6977 -27.6974 -27.6968 -27.6963
   -27.6735 -27.6732 -27.6731 -27.6728 -27.6712 -27.6708 -27.6704 -27.6700
   -27.6685 -27.6680 -27.6679 -27.6673 -27.6582 -27.6580 -27.6576 -27.6574
   -27.5711 -27.5688 -27.5677 -27.5669 -27.5549 -27.5535 -27.5529 -27.5514
   -27.5512 -27.5509 -27.5498 -27.5493 -27.3881 -27.3858 -27.3839 -27.3833
   -27.3213 -27.3189 -27.3169 -27.3163 -27.2591 -27.2570 -27.2552 -27.2547
   -12.4558 -12.2970 -12.1302 -12.1091 -12.0525 -11.9782 -11.8821 -11.8705
   -11.7673 -11.6892 -11.6730 -11.6442 -11.6420 -11.6341 -11.5881 -11.5865
   -11.5237 -11.5135 -11.5134 -11.5077 -11.4666 -11.4658 -11.4648 -11.4396
   -11.4231 -11.3915 -11.3569 -11.3566 -11.3241 -11.3215 -11.3177 -11.3020
   -11.2271 -11.2196 -11.2179 -11.1751 -11.1616 -11.1481 -11.1388 -11.1343
   -11.1322 -11.1254 -11.0983 -11.0958 -11.0830 -11.0777 -11.0672 -11.0655
   -11.0634 -11.0574 -11.0475 -11.0382 -11.0366 -11.0346 -10.9991 -10.9774
    -9.9880  -9.9850  -9.9750  -9.9716  -9.9400  -9.9369  -9.9328  -9.9289
     0.0301   0.1538   0.1542   0.1743   0.3678   0.3767   0.3799   0.4433
     0.5731   0.6092   0.6404   0.6506   0.6563   0.6669   0.7321   0.7391
     0.7401   0.7887   0.8369   0.8372   0.8869   0.9252   0.9277   0.9549
     0.9766   1.0031   1.0526   1.0624   1.1000   1.1119   1.1140   1.1177
     1.1193   1.1197   1.1329   1.1526   1.1659   1.1719   1.1900   1.1955
     1.2164   1.2599   1.2635   1.2692   1.2859   1.2985   1.3265   1.3343
     1.3602   1.3789   1.3989   1.4037   1.4256   1.4553   1.4691   1.5220
     1.5230   1.5884   1.5972   1.6197   1.6200   1.6484   1.7580   1.8325
     1.8544   1.9234   1.9369   1.9506   2.0076   2.0480   2.1365   2.1502
     2.1859   2.1901   2.2121   2.2296   2.2415   2.2847   2.3259   2.3291
     2.3495   2.3563   2.4371   2.4435   2.5478   2.5760   2.5885   2.6089
     2.6582   2.6703   2.7247   2.7271   2.7452   2.7828   2.7840   2.8121
     2.8313   2.8846   2.8933   2.9057   2.9146   2.9254   2.9352   3.0051
     3.0069   3.0379   3.0393   3.0712   3.0740   3.0753   3.0809   3.1094
     3.1469   3.1476   3.1673   3.1997   3.2070   3.2631   3.3146   3.3188
     3.3390   3.3681   3.4009   3.4153   3.4353   3.4803   3.4994   3.5102
     3.5276   3.6118   3.6239   3.6262   3.6345   3.6452   3.6488   3.7063
     3.7262   3.7429   3.7618   3.7702   3.7754   3.7893   3.8133   3.8373
     3.8881   3.9151   3.9415   3.9615   3.9694   3.9733   4.0417   4.0494
     4.0823   4.1068   4.1108   4.1519   4.2258   4.2408   4.2597   4.2790
     4.2944   4.3072   4.3158   4.3501   4.3724   4.4028   4.4202   4.4331
     4.4782   4.4865   4.5265   4.5291   4.5564   4.5723   4.6251   4.6284
     4.6343   4.6412   4.6500   4.7633   4.7757   4.8508   4.8953   4.9053
     4.9596   4.9624   4.9727   4.9746   4.9867   5.0938   5.1240   5.1622
     7.4163   7.4537   7.5011   7.5323   7.5857   7.5925   7.6078   7.6197
     7.6463   7.6590   7.6886   7.7525   7.7830   7.7911   7.8112   7.8251
     7.8404   7.8645   7.9030   7.9203   7.9418   7.9726   7.9810   7.9892
     8.0013   8.0361   8.0473   8.0829   8.1150   8.1431   8.1464   8.1466
     8.1582   8.1819   8.1898   8.2435   8.2599   8.2614   8.2706   8.2776
     8.3121   8.3586   8.3689   8.3918   8.4071   8.4166   8.4171   8.4464
     8.4518   8.4674   8.4707   8.4800   8.5208   8.5480   8.5630   8.5833
     8.5855   8.5920   8.5980   8.6080   8.6164   8.6200   8.6242   8.6315
     8.6402   8.6425   8.7003   8.8066   8.8146   8.8199   8.8278   8.8451
     8.8584   8.9523   8.9529   8.9789   8.9888

          k = 0.0143-0.0223 0.0000 (106809 PWs)   bands (ev):

   -51.5600 -51.5579 -51.5552 -51.5535 -51.5307 -51.5298 -51.5285 -51.5277
   -51.5144 -51.5138 -51.5137 -51.5134 -51.4871 -51.4864 -51.4864 -51.4861
   -51.4719 -51.4717 -51.4711 -51.4709 -51.4445 -51.4444 -51.4438 -51.4435
   -51.1999 -51.1974 -51.1953 -51.1947 -51.1730 -51.1704 -51.1684 -51.1677
   -28.0555 -28.0541 -28.0520 -28.0512 -28.0075 -28.0069 -28.0067 -28.0064
   -27.9829 -27.9828 -27.9825 -27.9823 -27.8632 -27.8627 -27.8577 -27.8572
   -27.8160 -27.8144 -27.8133 -27.8104 -27.7811 -27.7810 -27.7795 -27.7778
   -27.7754 -27.7747 -27.7730 -27.7718 -27.7560 -27.7547 -27.7545 -27.7542
   -27.7470 -27.7463 -27.7462 -27.7447 -27.7429 -27.7371 -27.7357 -27.7324
   -27.7167 -27.7161 -27.7159 -27.7153 -27.7116 -27.7110 -27.7089 -27.7087
   -27.7084 -27.7083 -27.7079 -27.7076 -27.6977 -27.6974 -27.6968 -27.6963
   -27.6735 -27.6732 -27.6731 -27.6728 -27.6712 -27.6708 -27.6704 -27.6700
   -27.6685 -27.6680 -27.6679 -27.6673 -27.6582 -27.6580 -27.6576 -27.6574
   -27.5711 -27.5688 -27.5677 -27.5669 -27.5549 -27.5535 -27.5529 -27.5514
   -27.5512 -27.5509 -27.5498 -27.5493 -27.3881 -27.3858 -27.3839 -27.3833
   -27.3213 -27.3189 -27.3169 -27.3163 -27.2591 -27.2570 -27.2552 -27.2547
   -12.4558 -12.2970 -12.1302 -12.1091 -12.0525 -11.9782 -11.8821 -11.8705
   -11.7673 -11.6892 -11.6730 -11.6442 -11.6420 -11.6341 -11.5881 -11.5865
   -11.5237 -11.5135 -11.5134 -11.5077 -11.4666 -11.4658 -11.4648 -11.4396
   -11.4231 -11.3915 -11.3569 -11.3566 -11.3241 -11.3215 -11.3177 -11.3020
   -11.2271 -11.2196 -11.2179 -11.1751 -11.1616 -11.1481 -11.1388 -11.1343
   -11.1322 -11.1254 -11.0983 -11.0958 -11.0830 -11.0777 -11.0672 -11.0655
   -11.0634 -11.0574 -11.0475 -11.0382 -11.0366 -11.0346 -10.9991 -10.9774
    -9.9880  -9.9850  -9.9750  -9.9716  -9.9400  -9.9369  -9.9328  -9.9289
     0.0301   0.1538   0.1542   0.1743   0.3678   0.3767   0.3799   0.4433
     0.5731   0.6092   0.6404   0.6506   0.6563   0.6669   0.7321   0.7391
     0.7401   0.7887   0.8369   0.8372   0.8869   0.9252   0.9277   0.9549
     0.9766   1.0031   1.0526   1.0624   1.1000   1.1119   1.1140   1.1177
     1.1193   1.1197   1.1329   1.1526   1.1659   1.1719   1.1900   1.1955
     1.2164   1.2599   1.2635   1.2692   1.2859   1.2985   1.3265   1.3343
     1.3602   1.3789   1.3989   1.4037   1.4256   1.4553   1.4691   1.5220
     1.5230   1.5884   1.5972   1.6197   1.6200   1.6484   1.7580   1.8325
     1.8544   1.9234   1.9369   1.9505   2.0076   2.0480   2.1365   2.1502
     2.1860   2.1901   2.2121   2.2296   2.2415   2.2847   2.3259   2.3291
     2.3495   2.3563   2.4371   2.4435   2.5478   2.5760   2.5885   2.6089
     2.6582   2.6703   2.7247   2.7271   2.7452   2.7828   2.7840   2.8121
     2.8313   2.8846   2.8933   2.9057   2.9146   2.9253   2.9352   3.0051
     3.0069   3.0379   3.0393   3.0712   3.0740   3.0752   3.0809   3.1094
     3.1469   3.1476   3.1673   3.1997   3.2070   3.2631   3.3146   3.3188
     3.3390   3.3681   3.4009   3.4153   3.4353   3.4803   3.4994   3.5102
     3.5276   3.6118   3.6239   3.6262   3.6344   3.6452   3.6488   3.7063
     3.7262   3.7429   3.7618   3.7702   3.7754   3.7893   3.8133   3.8373
     3.8882   3.9151   3.9415   3.9615   3.9694   3.9733   4.0417   4.0494
     4.0823   4.1068   4.1108   4.1519   4.2258   4.2407   4.2597   4.2790
     4.2944   4.3072   4.3158   4.3501   4.3724   4.4028   4.4202   4.4331
     4.4782   4.4865   4.5265   4.5291   4.5564   4.5723   4.6251   4.6284
     4.6343   4.6412   4.6499   4.7633   4.7757   4.8508   4.8953   4.9053
     4.9596   4.9624   4.9727   4.9746   4.9867   5.0938   5.1240   5.1622
     7.4163   7.4537   7.5010   7.5323   7.5857   7.5925   7.6077   7.6197
     7.6463   7.6590   7.6886   7.7525   7.7830   7.7911   7.8112   7.8251
     7.8404   7.8645   7.9030   7.9203   7.9418   7.9726   7.9810   7.9892
     8.0013   8.0361   8.0473   8.0829   8.1150   8.1430   8.1464   8.1466
     8.1582   8.1819   8.1898   8.2436   8.2599   8.2614   8.2706   8.2776
     8.3121   8.3586   8.3689   8.3918   8.4071   8.4167   8.4173   8.4464
     8.4518   8.4674   8.4711   8.4802   8.5210   8.5481   8.5630   8.5833
     8.5853   8.5920   8.5980   8.6081   8.6164   8.6179   8.6242   8.6326
     8.6406   8.6425   8.7004   8.8119   8.8143   8.8196   8.8295   8.8464
     8.8577   8.9507   8.9527   8.9790   9.0214

     the Fermi energy is     5.6725 ev

!    total energy              =   -5881.57916356 Ry
     estimated scf accuracy    <       0.00334392 Ry
     smearing contrib. (-TS)   =      -0.00000000 Ry
     internal energy E=F+TS    =   -5881.57916356 Ry

     convergence has been achieved in  18 iterations

     Using ACE for calculation of exact exchange

     EXX grid:   854265 G-vectors     FFT dimensions: ( 100,  64, 270)

     EXX: now go back to refine exchange calculation

     total cpu time spent up to now is     3176.4 secs

     per-process dynamical memory:   696.9 Mb

     Self-consistent Calculation

     iteration #  1     ecut=    80.00 Ry     beta= 0.30
     Davidson diagonalization with overlap
     ethr =  2.54E-06,  avg # of iterations =  9.0

     total cpu time spent up to now is     3191.7 secs

     total energy              =   -5839.80064668 Ry
     estimated scf accuracy    <       1.05802363 Ry

     iteration #  2     ecut=    80.00 Ry     beta= 0.30
     Davidson diagonalization with overlap
     ethr =  1.38E-04,  avg # of iterations =  1.0

     total cpu time spent up to now is     3195.8 secs

     total energy              =   -5839.64475389 Ry
     estimated scf accuracy    <       0.40667219 Ry

     iteration #  3     ecut=    80.00 Ry     beta= 0.30
     Davidson diagonalization with overlap
     ethr =  5.30E-05,  avg # of iterations =  3.0

     total cpu time spent up to now is     3201.2 secs

     total energy              =   -5839.72487490 Ry
     estimated scf accuracy    <       0.06161089 Ry

     iteration #  4     ecut=    80.00 Ry     beta= 0.30
     Davidson diagonalization with overlap
     ethr =  8.02E-06,  avg # of iterations =  2.0

     negative rho (up, down):  5.969E-06 0.000E+00

     total cpu time spent up to now is     3206.6 secs

     total energy              =   -5839.72358195 Ry
     estimated scf accuracy    <       0.04573518 Ry

     iteration #  5     ecut=    80.00 Ry     beta= 0.30
     Davidson diagonalization with overlap
     ethr =  5.96E-06,  avg # of iterations =  2.0

     negative rho (up, down):  1.706E-03 0.000E+00

     total cpu time spent up to now is     3211.2 secs

     total energy              =   -5839.72940062 Ry
     estimated scf accuracy    <       0.01858266 Ry

     iteration #  6     ecut=    80.00 Ry     beta= 0.30
     Davidson diagonalization with overlap
     ethr =  2.42E-06,  avg # of iterations =  4.0

     negative rho (up, down):  4.399E-03 0.000E+00

     total cpu time spent up to now is     3217.7 secs

     total energy              =   -5839.72245946 Ry
     estimated scf accuracy    <       0.03839707 Ry

     iteration #  7     ecut=    80.00 Ry     beta= 0.30
     Davidson diagonalization with overlap
     ethr =  2.42E-06,  avg # of iterations =  3.0

     negative rho (up, down):  9.354E-03 0.000E+00

     total cpu time spent up to now is     3223.7 secs

     total energy              =   -5839.72768540 Ry
     estimated scf accuracy    <       0.01190049 Ry

     iteration #  8     ecut=    80.00 Ry     beta= 0.30
     Davidson diagonalization with overlap
     ethr =  1.55E-06,  avg # of iterations =  1.0

     total cpu time spent up to now is     3227.9 secs

     End of self-consistent calculation

          k = 0.0143 0.0223 0.0000 (106809 PWs)   bands (ev):

   -56.3741 -56.3739 -56.3698 -56.3697 -56.3443 -56.3442 -56.3400 -56.3399
   -56.2542 -56.2541 -56.2507 -56.2506 -56.2245 -56.2244 -56.2210 -56.2209
   -56.1794 -56.1775 -56.1750 -56.1749 -56.1741 -56.1720 -56.1709 -56.1705
   -56.1478 -56.1471 -56.1452 -56.1451 -56.1450 -56.1445 -56.1411 -56.1407
   -31.4379 -31.4376 -31.4335 -31.4333 -31.3090 -31.3088 -31.3054 -31.3052
   -31.2330 -31.2310 -31.2283 -31.2263 -31.2067 -31.2025 -31.2017 -31.1974
   -31.1526 -31.1485 -31.1467 -31.1426 -31.1403 -31.1397 -31.1361 -31.1355
   -31.1080 -31.1067 -31.1037 -31.1024 -31.1000 -31.0999 -31.0958 -31.0957
   -31.0713 -31.0699 -31.0671 -31.0658 -31.0591 -31.0573 -31.0559 -31.0540
   -31.0522 -31.0513 -31.0485 -31.0483 -31.0335 -31.0328 -31.0324 -31.0321
   -31.0316 -31.0298 -31.0287 -31.0283 -30.9833 -30.9821 -30.9814 -30.9802
   -30.9780 -30.9776 -30.9758 -30.9753 -30.9751 -30.9714 -30.9706 -30.9688
   -30.9586 -30.9575 -30.9543 -30.9531 -30.9133 -30.9133 -30.9131 -30.9117
   -30.9109 -30.9103 -30.9078 -30.9064 -30.9054 -30.9005 -30.8985 -30.8961
   -30.8833 -30.8822 -30.8811 -30.8807 -30.8805 -30.8781 -30.8721 -30.8680
   -30.8401 -30.8399 -30.8361 -30.8359 -30.7716 -30.7714 -30.7675 -30.7671
   -15.0923 -15.0310 -14.7881 -14.7670 -14.7607 -14.6153 -14.5391 -14.5332
   -14.4065 -14.3022 -14.2990 -14.2942 -14.2835 -14.2660 -14.2638 -14.2580
   -14.2191 -14.2144 -14.1991 -14.1812 -14.1691 -14.1426 -14.1141 -14.1108
   -14.0703 -14.0360 -14.0275 -14.0272 -13.9615 -13.9579 -13.9399 -13.9250
   -13.8586 -13.8386 -13.8371 -13.8054 -13.7778 -13.7732 -13.7490 -13.7399
   -13.7366 -13.7336 -13.6922 -13.6704 -13.6414 -13.6239 -13.6194 -13.6039
   -13.5876 -13.5621 -13.5316 -13.5304 -13.5276 -13.5080 -13.4679 -13.4559
   -12.6761 -12.6724 -12.6625 -12.6588 -12.6216 -12.6180 -12.6138 -12.6101
    -1.3078  -1.2138  -1.1788  -1.1770  -1.0285  -1.0211  -1.0136  -0.9153
    -0.7344  -0.6660  -0.6658  -0.6586  -0.6558  -0.6303  -0.5828  -0.5736
    -0.5420  -0.5374  -0.4819  -0.4355  -0.4350  -0.4216  -0.3846  -0.3800
    -0.3685  -0.3614  -0.3599  -0.3518  -0.2988  -0.2810  -0.2748  -0.2504
    -0.2133  -0.2065  -0.1980  -0.1840  -0.1443  -0.1210  -0.1195  -0.1148
    -0.1096  -0.1014  -0.0299  -0.0298  -0.0226  -0.0211  -0.0194   0.0128
     0.0778   0.0989   0.1100   0.1240   0.1520   0.1582   0.2017   0.2288
     0.3029   0.3065   0.3092   0.3416   0.3585   0.3713   0.5372   0.6288
     0.6348   0.6431   0.6633   0.6858   0.7155   0.7452   0.7517   0.7596
     0.8241   0.9234   0.9305   0.9370   0.9597   1.0111   1.0802   1.0994
     1.1309   1.1571   1.2457   1.2739   1.3761   1.3795   1.4566   1.4770
     1.4939   1.5464   1.5914   1.6349   1.6412   1.6518   1.6611   1.6881
     1.7157   1.7490   1.7843   1.7888   1.8234   1.8235   1.8741   1.8933
     1.9103   1.9115   1.9463   1.9516   1.9753   1.9812   1.9831   2.0278
     2.0356   2.0417   2.0775   2.0922   2.1122   2.1444   2.2090   2.2306
     2.2361   2.2640   2.3082   2.3212   2.3729   2.3848   2.3911   2.4396
     2.4833   2.5405   2.5473   2.5624   2.5762   2.6047   2.6531   2.6541
     2.6545   2.6595   2.7069   2.7091   2.7141   2.7750   2.8576   2.8868
     2.9052   2.9106   2.9156   2.9186   2.9198   2.9421   2.9566   3.0443
     3.0554   3.0694   3.0970   3.1252   3.1408   3.1608   3.2036   3.2231
     3.2960   3.3330   3.3379   3.3986   3.4393   3.4509   3.4906   3.4981
     3.4987   3.5093   3.5261   3.5387   3.5536   3.5896   3.5931   3.6667
     3.6839   3.6915   3.7254   3.7593   3.8345   3.8751   3.8794   3.8902
     3.8970   3.9198   3.9277   3.9750   4.0195   4.0678   4.1161   4.3376
     7.9941   8.0328   8.0450   8.0660   8.1378   8.1496   8.1581   8.1944
     8.2050   8.2465   8.2852   8.3872   8.3970   8.4244   8.4254   8.4356
     8.4483   8.4781   8.5223   8.5526   8.5628   8.6504   8.6531   8.6661
     8.6702   8.6999   8.7154   8.7289   8.7374   8.7448   8.7664   8.7923
     8.8105   8.8126   8.8495   8.8623   8.8671   8.8716   8.8901   8.9578
     8.9906   9.0028   9.0102   9.0342   9.0615   9.0728   9.0797   9.0923
     9.1017   9.1262   9.1439   9.1828   9.1965   9.1979   9.2610   9.2919
     9.3035   9.3116   9.3431   9.3519   9.3522   9.3682   9.3715   9.4397
     9.4788   9.4984   9.5027   9.5342   9.5431   9.5699   9.5763   9.5983
     9.6106   9.6279   9.7190   9.7464   9.7654

          k = 0.0143-0.0223 0.0000 (106809 PWs)   bands (ev):

   -56.3741 -56.3739 -56.3698 -56.3697 -56.3443 -56.3442 -56.3400 -56.3399
   -56.2542 -56.2541 -56.2507 -56.2506 -56.2245 -56.2244 -56.2210 -56.2209
   -56.1794 -56.1775 -56.1750 -56.1749 -56.1741 -56.1720 -56.1709 -56.1705
   -56.1478 -56.1471 -56.1452 -56.1451 -56.1450 -56.1445 -56.1411 -56.1407
   -31.4379 -31.4376 -31.4335 -31.4333 -31.3090 -31.3088 -31.3054 -31.3053
   -31.2330 -31.2310 -31.2283 -31.2263 -31.2067 -31.2025 -31.2017 -31.1974
   -31.1526 -31.1485 -31.1467 -31.1426 -31.1403 -31.1397 -31.1361 -31.1355
   -31.1080 -31.1067 -31.1037 -31.1024 -31.1000 -31.0999 -31.0958 -31.0957
   -31.0713 -31.0700 -31.0671 -31.0658 -31.0590 -31.0573 -31.0559 -31.0540
   -31.0522 -31.0513 -31.0485 -31.0483 -31.0335 -31.0328 -31.0324 -31.0321
   -31.0316 -31.0298 -31.0287 -31.0283 -30.9833 -30.9821 -30.9814 -30.9802
   -30.9780 -30.9776 -30.9758 -30.9753 -30.9751 -30.9714 -30.9706 -30.9688
   -30.9586 -30.9575 -30.9543 -30.9531 -30.9133 -30.9133 -30.9131 -30.9117
   -30.9109 -30.9103 -30.9078 -30.9064 -30.9053 -30.9005 -30.8985 -30.8960
   -30.8833 -30.8822 -30.8811 -30.8807 -30.8805 -30.8780 -30.8721 -30.8680
   -30.8401 -30.8399 -30.8361 -30.8359 -30.7716 -30.7714 -30.7675 -30.7671
   -15.0923 -15.0310 -14.7881 -14.7670 -14.7607 -14.6153 -14.5391 -14.5332
   -14.4065 -14.3022 -14.2990 -14.2942 -14.2835 -14.2660 -14.2638 -14.2580
   -14.2191 -14.2144 -14.1991 -14.1812 -14.1691 -14.1426 -14.1141 -14.1108
   -14.0703 -14.0360 -14.0275 -14.0272 -13.9615 -13.9579 -13.9399 -13.9250
   -13.8586 -13.8386 -13.8371 -13.8054 -13.7778 -13.7732 -13.7490 -13.7399
   -13.7366 -13.7336 -13.6922 -13.6704 -13.6414 -13.6239 -13.6194 -13.6039
   -13.5876 -13.5621 -13.5316 -13.5304 -13.5276 -13.5080 -13.4679 -13.4559
   -12.6761 -12.6724 -12.6625 -12.6588 -12.6216 -12.6180 -12.6138 -12.6101
    -1.3078  -1.2138  -1.1788  -1.1770  -1.0285  -1.0211  -1.0136  -0.9153
    -0.7344  -0.6660  -0.6659  -0.6586  -0.6558  -0.6303  -0.5828  -0.5737
    -0.5420  -0.5374  -0.4819  -0.4356  -0.4351  -0.4217  -0.3846  -0.3800
    -0.3685  -0.3614  -0.3599  -0.3519  -0.2988  -0.2810  -0.2749  -0.2504
    -0.2133  -0.2065  -0.1980  -0.1841  -0.1442  -0.1210  -0.1195  -0.1148
    -0.1096  -0.1016  -0.0299  -0.0298  -0.0226  -0.0212  -0.0193   0.0128
     0.0778   0.0988   0.1100   0.1240   0.1521   0.1582   0.2017   0.2288
     0.3029   0.3065   0.3092   0.3416   0.3584   0.3713   0.5372   0.6288
     0.6348   0.6431   0.6633   0.6858   0.7155   0.7452   0.7517   0.7596
     0.8241   0.9234   0.9305   0.9370   0.9597   1.0110   1.0802   1.0994
     1.1310   1.1571   1.2457   1.2739   1.3761   1.3795   1.4565   1.4771
     1.4939   1.5464   1.5913   1.6349   1.6412   1.6517   1.6611   1.6882
     1.7157   1.7489   1.7843   1.7888   1.8234   1.8235   1.8743   1.8934
     1.9103   1.9115   1.9467   1.9516   1.9751   1.9811   1.9831   2.0278
     2.0356   2.0416   2.0775   2.0922   2.1122   2.1444   2.2090   2.2305
     2.2362   2.2640   2.3082   2.3212   2.3729   2.3849   2.3911   2.4395
     2.4833   2.5405   2.5468   2.5624   2.5759   2.6047   2.6530   2.6541
     2.6545   2.6594   2.7070   2.7091   2.7141   2.7749   2.8576   2.8868
     2.9053   2.9106   2.9155   2.9187   2.9198   2.9421   2.9566   3.0443
     3.0554   3.0694   3.0970   3.1252   3.1408   3.1607   3.2036   3.2231
     3.2960   3.3330   3.3379   3.3986   3.4392   3.4509   3.4906   3.4982
     3.4987   3.5093   3.5261   3.5387   3.5536   3.5896   3.5931   3.6667
     3.6839   3.6915   3.7254   3.7593   3.8345   3.8750   3.8794   3.8902
     3.8970   3.9198   3.9276   3.9750   4.0195   4.0678   4.1162   4.3376
     7.9942   8.0327   8.0449   8.0660   8.1377   8.1497   8.1582   8.1943
     8.2051   8.2465   8.2851   8.3872   8.3971   8.4244   8.4254   8.4356
     8.4485   8.4782   8.5223   8.5528   8.5627   8.6504   8.6531   8.6661
     8.6703   8.6999   8.7154   8.7286   8.7374   8.7448   8.7664   8.7914
     8.8105   8.8127   8.8495   8.8623   8.8671   8.8716   8.8901   8.9578
     8.9917   9.0028   9.0109   9.0342   9.0615   9.0723   9.0799   9.0879
     9.1113   9.1262   9.1439   9.1828   9.1976   9.1978   9.2703   9.2796
     9.3023   9.3116   9.3435   9.3526   9.3538   9.3632   9.3830   9.4443
     9.4790   9.4935   9.5024   9.5329   9.5627   9.5748   9.5947   9.5989
     9.6006   9.7078   9.7396   9.7637   9.7748

     the Fermi energy is     6.0780 ev

!    total energy              =   -5839.71990098 Ry
     estimated scf accuracy    <       0.00909412 Ry
     smearing contrib. (-TS)   =      -0.00000000 Ry
     internal energy E=F+TS    =   -5839.71990098 Ry

     convergence has been achieved in   8 iterations

     Using ACE for calculation of exact exchange

     total energy              =   -5839.76864584 Ry
     Harris-Foulkes estimate   =   -5839.77679653 Ry
     est. exchange err (dexx)  =       0.04874486 Ry
     - averaged Fock potential =     369.51051253 Ry
     + Fock energy (ACE)       =    -184.88907456 Ry

     EXX: now go back to refine exchange calculation

     total cpu time spent up to now is     6299.5 secs

     per-process dynamical memory:   696.9 Mb

     Self-consistent Calculation

     iteration #  1     ecut=    80.00 Ry     beta= 0.30
     Davidson diagonalization with overlap
     ethr =  1.55E-06,  avg # of iterations = 11.5

     total cpu time spent up to now is     6313.3 secs

     total energy              =   -5839.80017602 Ry
     estimated scf accuracy    <       0.10713473 Ry

     iteration #  2     ecut=    80.00 Ry     beta= 0.30
     Davidson diagonalization with overlap
     ethr =  1.39E-05,  avg # of iterations =  1.0

     total cpu time spent up to now is     6317.3 secs

     total energy              =   -5839.79435937 Ry
     estimated scf accuracy    <       0.08399027 Ry

     iteration #  3     ecut=    80.00 Ry     beta= 0.30
     Davidson diagonalization with overlap
     ethr =  1.09E-05,  avg # of iterations =  1.0

     total cpu time spent up to now is     6321.4 secs

     total energy              =   -5839.79302809 Ry
     estimated scf accuracy    <       0.06500858 Ry

     iteration #  4     ecut=    80.00 Ry     beta= 0.30
     Davidson diagonalization with overlap
     ethr =  8.46E-06,  avg # of iterations =  1.0

     total cpu time spent up to now is     6325.4 secs

     total energy              =   -5839.78831821 Ry
     estimated scf accuracy    <       0.05281703 Ry

     iteration #  5     ecut=    80.00 Ry     beta= 0.30
     Davidson diagonalization with overlap
     ethr =  6.88E-06,  avg # of iterations =  6.0

     total cpu time spent up to now is     6330.8 secs

     total energy              =   -5839.78515694 Ry
     estimated scf accuracy    <       0.02980805 Ry

     iteration #  6     ecut=    80.00 Ry     beta= 0.30
     Davidson diagonalization with overlap
     ethr =  3.88E-06,  avg # of iterations =  6.0

     total cpu time spent up to now is     6337.7 secs

     total energy              =   -5839.77999248 Ry
     estimated scf accuracy    <       0.03249442 Ry

     iteration #  7     ecut=    80.00 Ry     beta= 0.30
     Davidson diagonalization with overlap
     ethr =  3.88E-06,  avg # of iterations =  5.0

     total cpu time spent up to now is     6343.3 secs

     End of self-consistent calculation

          k = 0.0143 0.0223 0.0000 (106809 PWs)   bands (ev):

   -56.6208 -56.6185 -56.6155 -56.6137 -56.5891 -56.5881 -56.5869 -56.5861
   -56.5778 -56.5777 -56.5765 -56.5764 -56.5484 -56.5483 -56.5471 -56.5470
   -56.5249 -56.5247 -56.5215 -56.5213 -56.4955 -56.4954 -56.4921 -56.4920
   -56.1852 -56.1848 -56.1805 -56.1805 -56.1556 -56.1551 -56.1509 -56.1508
   -31.6551 -31.6534 -31.6507 -31.6497 -31.6131 -31.6128 -31.6117 -31.6116
   -31.5735 -31.5734 -31.5702 -31.5702 -31.4525 -31.4523 -31.4454 -31.4439
   -31.4041 -31.4027 -31.4004 -31.3973 -31.3602 -31.3584 -31.3575 -31.3548
   -31.3525 -31.3514 -31.3484 -31.3483 -31.3287 -31.3267 -31.3265 -31.3253
   -31.3201 -31.3198 -31.3196 -31.3181 -31.3123 -31.3042 -31.3017 -31.2973
   -31.2897 -31.2887 -31.2876 -31.2875 -31.2853 -31.2847 -31.2844 -31.2838
   -31.2805 -31.2787 -31.2757 -31.2727 -31.2677 -31.2675 -31.2663 -31.2660
   -31.2445 -31.2438 -31.2417 -31.2409 -31.2384 -31.2380 -31.2352 -31.2349
   -31.2313 -31.2308 -31.2281 -31.2275 -31.2273 -31.2266 -31.2241 -31.2235
   -31.1091 -31.1087 -31.1044 -31.1043 -31.0628 -31.0619 -31.0582 -31.0574
   -31.0384 -31.0379 -31.0337 -31.0335 -30.9121 -30.9115 -30.9075 -30.9070
   -30.8381 -30.8376 -30.8334 -30.8332 -30.7753 -30.7749 -30.7706 -30.7705
   -15.3485 -15.1790 -14.9993 -14.9676 -14.9216 -14.8369 -14.7335 -14.7144
   -14.6152 -14.5300 -14.5031 -14.4819 -14.4803 -14.4691 -14.4270 -14.4241
   -14.3583 -14.3498 -14.3451 -14.3382 -14.2847 -14.2807 -14.2757 -14.2554
   -14.2409 -14.1984 -14.1712 -14.1664 -14.1293 -14.1278 -14.1271 -14.1101
   -14.0205 -14.0194 -14.0119 -13.9721 -13.9509 -13.9389 -13.9347 -13.9299
   -13.9260 -13.9092 -13.8844 -13.8794 -13.8698 -13.8605 -13.8493 -13.8491
   -13.8488 -13.8443 -13.8235 -13.8224 -13.8151 -13.8143 -13.7737 -13.7507
   -12.5755 -12.5692 -12.5625 -12.5562 -12.5183 -12.5119 -12.5107 -12.5043
    -1.5834  -1.4448  -1.4441  -1.4199  -1.2038  -1.1864  -1.1855  -1.1182
    -0.9586  -0.9162  -0.8903  -0.8865  -0.8829  -0.8715  -0.8153  -0.7988
    -0.7975  -0.7530  -0.7024  -0.6985  -0.6166  -0.6046  -0.5997  -0.5965
    -0.5652  -0.5296  -0.4673  -0.4557  -0.4360  -0.4170  -0.4138  -0.4018
    -0.3960  -0.3951  -0.3834  -0.3601  -0.3575  -0.3548  -0.3218  -0.3191
    -0.2796  -0.2577  -0.2389  -0.2310  -0.2140  -0.2093  -0.1809  -0.1518
    -0.1366  -0.1172  -0.0998  -0.0988  -0.0452  -0.0399  -0.0248   0.0384
     0.0636   0.1147   0.1375   0.1482   0.1561   0.1793   0.3021   0.3893
     0.4434   0.4991   0.5149   0.5182   0.5682   0.6356   0.7135   0.7207
     0.7652   0.7697   0.7805   0.8243   0.8307   0.9130   0.9180   0.9348
     0.9523   0.9532   1.0746   1.0879   1.2177   1.2239   1.2436   1.2657
     1.3129   1.3278   1.3750   1.3939   1.4080   1.4535   1.4615   1.4809
     1.5173   1.5553   1.5727   1.5766   1.5945   1.6024   1.6275   1.6660
     1.6731   1.7327   1.7513   1.7599   1.7712   1.7813   1.7836   1.8279
     1.8441   1.8483   1.8834   1.9259   1.9350   1.9915   2.0481   2.0525
     2.0858   2.1057   2.1409   2.1662   2.1836   2.2498   2.2527   2.2799
     2.2909   2.3632   2.3895   2.3967   2.4128   2.4207   2.4423   2.4527
     2.5071   2.5117   2.5271   2.5306   2.5467   2.5694   2.5895   2.6002
     2.6851   2.7260   2.7451   2.7720   2.7861   2.8052   2.8420   2.8911
     2.9093   2.9543   2.9593   2.9606   3.0843   3.1127   3.1132   3.1179
     3.1217   3.1717   3.1912   3.1919   3.2468   3.2486   3.2678   3.2950
     3.3136   3.3530   3.3584   3.4043   3.4617   3.4819   3.5667   3.5668
     3.5735   3.5853   3.5913   3.6859   3.7351   3.7804   3.8841   3.9271
     3.9285   3.9326   3.9352   3.9748   3.9805   4.0159   4.0962   4.1048
     7.8077   7.8498   7.8889   7.9309   7.9930   7.9965   8.0215   8.0305
     8.0593   8.0657   8.1072   8.1898   8.2119   8.2177   8.2474   8.2504
     8.2785   8.2808   8.3411   8.3593   8.4003   8.4280   8.4491   8.4527
     8.4547   8.4790   8.5168   8.5454   8.5768   8.5972   8.6117   8.6164
     8.6198   8.6437   8.6598   8.7275   8.7368   8.7378   8.7567   8.7913
     8.7983   8.8623   8.8865   8.8974   8.9118   8.9563   8.9725   8.9769
     8.9857   9.0025   9.0380   9.0544   9.0783   9.0877   9.0881   9.0942
     9.1212   9.1231   9.1248   9.1416   9.1633   9.1685   9.1706   9.1804
     9.1906   9.1965   9.2352   9.3513   9.3554   9.3658   9.3973   9.3976
     9.4123   9.5051   9.5160   9.5472   9.5481

          k = 0.0143-0.0223 0.0000 (106809 PWs)   bands (ev):

   -56.6208 -56.6185 -56.6155 -56.6137 -56.5891 -56.5881 -56.5869 -56.5861
   -56.5778 -56.5777 -56.5765 -56.5764 -56.5484 -56.5483 -56.5471 -56.5470
   -56.5249 -56.5247 -56.5215 -56.5213 -56.4955 -56.4954 -56.4921 -56.4920
   -56.1852 -56.1848 -56.1805 -56.1805 -56.1556 -56.1551 -56.1509 -56.1508
   -31.6551 -31.6534 -31.6507 -31.6497 -31.6131 -31.6128 -31.6117 -31.6116
   -31.5735 -31.5734 -31.5702 -31.5702 -31.4525 -31.4523 -31.4454 -31.4439
   -31.4041 -31.4027 -31.4004 -31.3973 -31.3602 -31.3584 -31.3575 -31.3548
   -31.3525 -31.3514 -31.3484 -31.3483 -31.3287 -31.3267 -31.3265 -31.3253
   -31.3201 -31.3198 -31.3196 -31.3181 -31.3124 -31.3042 -31.3017 -31.2973
   -31.2897 -31.2887 -31.2876 -31.2875 -31.2853 -31.2847 -31.2844 -31.2838
   -31.2805 -31.2787 -31.2757 -31.2727 -31.2677 -31.2675 -31.2663 -31.2660
   -31.2445 -31.2438 -31.2417 -31.2409 -31.2384 -31.2380 -31.2352 -31.2349
   -31.2313 -31.2308 -31.2281 -31.2275 -31.2273 -31.2266 -31.2241 -31.2235
   -31.1091 -31.1087 -31.1044 -31.1043 -31.0628 -31.0619 -31.0582 -31.0574
   -31.0384 -31.0379 -31.0337 -31.0335 -30.9121 -30.9115 -30.9075 -30.9070
   -30.8381 -30.8376 -30.8334 -30.8332 -30.7753 -30.7749 -30.7706 -30.7705
   -15.3485 -15.1790 -14.9993 -14.9676 -14.9216 -14.8369 -14.7335 -14.7144
   -14.6152 -14.5300 -14.5031 -14.4819 -14.4803 -14.4691 -14.4270 -14.4241
   -14.3583 -14.3498 -14.3451 -14.3382 -14.2847 -14.2807 -14.2757 -14.2554
   -14.2409 -14.1984 -14.1712 -14.1664 -14.1293 -14.1278 -14.1271 -14.1101
   -14.0205 -14.0194 -14.0119 -13.9721 -13.9509 -13.9389 -13.9347 -13.9299
   -13.9260 -13.9092 -13.8844 -13.8794 -13.8698 -13.8605 -13.8493 -13.8491
   -13.8488 -13.8443 -13.8235 -13.8224 -13.8151 -13.8143 -13.7737 -13.7507
   -12.5755 -12.5692 -12.5625 -12.5562 -12.5183 -12.5119 -12.5107 -12.5043
    -1.5834  -1.4448  -1.4441  -1.4199  -1.2038  -1.1864  -1.1855  -1.1182
    -0.9586  -0.9162  -0.8903  -0.8865  -0.8829  -0.8715  -0.8153  -0.7988
    -0.7975  -0.7530  -0.7024  -0.6985  -0.6166  -0.6046  -0.5997  -0.5965
    -0.5652  -0.5296  -0.4673  -0.4557  -0.4360  -0.4170  -0.4138  -0.4018
    -0.3960  -0.3951  -0.3834  -0.3601  -0.3575  -0.3548  -0.3218  -0.3191
    -0.2796  -0.2577  -0.2389  -0.2310  -0.2141  -0.2093  -0.1809  -0.1518
    -0.1366  -0.1172  -0.0998  -0.0988  -0.0452  -0.0399  -0.0248   0.0384
     0.0636   0.1147   0.1375   0.1482   0.1561   0.1793   0.3021   0.3893
     0.4434   0.4991   0.5149   0.5182   0.5682   0.6356   0.7135   0.7207
     0.7652   0.7697   0.7805   0.8243   0.8306   0.9130   0.9180   0.9348
     0.9523   0.9532   1.0746   1.0879   1.2177   1.2239   1.2436   1.2657
     1.3129   1.3278   1.3750   1.3939   1.4080   1.4535   1.4615   1.4809
     1.5173   1.5553   1.5727   1.5766   1.5945   1.6025   1.6275   1.6660
     1.6731   1.7327   1.7513   1.7598   1.7712   1.7813   1.7836   1.8279
     1.8441   1.8483   1.8834   1.9260   1.9350   1.9915   2.0481   2.0525
     2.0858   2.1058   2.1409   2.1662   2.1836   2.2498   2.2527   2.2799
     2.2908   2.3632   2.3895   2.3967   2.4128   2.4208   2.4423   2.4527
     2.5071   2.5117   2.5271   2.5306   2.5467   2.5694   2.5895   2.6001
     2.6850   2.7260   2.7451   2.7720   2.7861   2.8052   2.8420   2.8911
     2.9093   2.9543   2.9593   2.9606   3.0843   3.1127   3.1132   3.1179
     3.1217   3.1717   3.1912   3.1919   3.2468   3.2486   3.2678   3.2950
     3.3137   3.3530   3.3584   3.4044   3.4617   3.4819   3.5667   3.5668
     3.5735   3.5853   3.5913   3.6859   3.7351   3.7804   3.8841   3.9270
     3.9285   3.9326   3.9352   3.9748   3.9805   4.0159   4.0962   4.1048
     7.8077   7.8499   7.8889   7.9308   7.9930   7.9965   8.0215   8.0305
     8.0593   8.0657   8.1072   8.1898   8.2119   8.2177   8.2474   8.2504
     8.2784   8.2808   8.3410   8.3593   8.4003   8.4280   8.4491   8.4527
     8.4547   8.4790   8.5168   8.5453   8.5768   8.5972   8.6116   8.6164
     8.6198   8.6437   8.6600   8.7275   8.7369   8.7378   8.7567   8.7913
     8.7983   8.8623   8.8867   8.8974   8.9118   8.9562   8.9725   8.9771
     8.9857   9.0027   9.0389   9.0541   9.0783   9.0876   9.0885   9.0943
     9.1212   9.1231   9.1249   9.1416   9.1633   9.1685   9.1711   9.1797
     9.1907   9.1966   9.2351   9.3519   9.3567   9.3663   9.3980   9.3984
     9.4118   9.5045   9.5164   9.5477   9.5864

     the Fermi energy is     5.8859 ev

!    total energy              =   -5839.78054603 Ry
     estimated scf accuracy    <       0.00712276 Ry
     smearing contrib. (-TS)   =      -0.00000000 Ry
     internal energy E=F+TS    =   -5839.78054603 Ry

     convergence has been achieved in   7 iterations

     Using ACE for calculation of exact exchange

!!   total energy              =   -5839.78268122 Ry
     Harris-Foulkes estimate   =   -5839.78639377 Ry
     est. exchange err (dexx)  =       0.00213519 Ry
     - averaged Fock potential =     369.84829528 Ry
     + Fock energy (ACE)       =    -184.96135591 Ry

     EXX self-consistency reached

     Forces acting on atoms (cartesian axes, Ry/au):

     atom    1 type  1   force =    -0.01042725    0.00002321   -0.00662283
     atom    2 type  1   force =    -0.00745141   -0.00001107   -0.00963099
     atom    3 type  1   force =    -0.04001633    0.00000777   -0.00984739
     atom    4 type  1   force =    -0.11024751    0.00001864    0.05485392
     atom    5 type  1   force =     0.00578248    0.00000573    0.00484024
     atom    6 type  1   force =    -0.00576984   -0.00001240   -0.00600654
     atom    7 type  1   force =     0.00495410   -0.00001765   -0.00684236
     atom    8 type  1   force =    -0.00778886    0.00000303    0.00575525
     atom    9 type  1   force =     0.00492059   -0.00002088    0.00689703
     atom   10 type  1   force =    -0.00775822    0.00001603   -0.00568773
     atom   11 type  1   force =     0.00576993   -0.00000601   -0.00481866
     atom   12 type  1   force =    -0.00576693   -0.00000446    0.00599696
     atom   13 type  1   force =    -0.04005974    0.00006308    0.00987841
     atom   14 type  1   force =    -0.11031620   -0.00000991   -0.05483679
     atom   15 type  1   force =    -0.01047649    0.00004648    0.00677352
     atom   16 type  1   force =    -0.00750896   -0.00002007    0.00970262
     atom   17 type  1   force =    -0.01040183   -0.00000202   -0.00663857
     atom   18 type  1   force =    -0.00744496   -0.00000832   -0.00965882
     atom   19 type  1   force =    -0.04000557    0.00000658   -0.00982826
     atom   20 type  1   force =    -0.11026652   -0.00000428    0.05483994
     atom   21 type  1   force =     0.00577464   -0.00001424    0.00485378
     atom   22 type  1   force =    -0.00576707    0.00000075   -0.00599555
     atom   23 type  1   force =     0.00494010   -0.00001951   -0.00687207
     atom   24 type  1   force =    -0.00778259   -0.00002604    0.00575477
     atom   25 type  1   force =     0.00495974    0.00000374    0.00686016
     atom   26 type  1   force =    -0.00776183   -0.00001241   -0.00567635
     atom   27 type  1   force =     0.00579637   -0.00000079   -0.00480221
     atom   28 type  1   force =    -0.00576648   -0.00001174    0.00601820
     atom   29 type  1   force =    -0.04008126    0.00004600    0.00991141
     atom   30 type  1   force =    -0.11031147    0.00001518   -0.05486215
     atom   31 type  1   force =    -0.01047484    0.00005861    0.00676601
     atom   32 type  1   force =    -0.00748352   -0.00001462    0.00972134
     atom   33 type  1   force =    -0.01042823    0.00001135   -0.00663848
     atom   34 type  1   force =    -0.00742823   -0.00001971   -0.00963204
     atom   35 type  1   force =    -0.04001729    0.00001673   -0.00983437
     atom   36 type  1   force =    -0.11024309   -0.00000304    0.05483615
     atom   37 type  1   force =     0.00578667   -0.00000142    0.00485117
     atom   38 type  1   force =    -0.00577157    0.00000048   -0.00602696
     atom   39 type  1   force =     0.00494095   -0.00001329   -0.00685250
     atom   40 type  1   force =    -0.00779248   -0.00000410    0.00574853
     atom   41 type  1   force =     0.00495948   -0.00001077    0.00685681
     atom   42 type  1   force =    -0.00776740    0.00001923   -0.00568500
     atom   43 type  1   force =     0.00577103   -0.00001569   -0.00482188
     atom   44 type  1   force =    -0.00576902   -0.00000947    0.00599823
     atom   45 type  1   force =    -0.04005286    0.00006324    0.00994717
     atom   46 type  1   force =    -0.11026652    0.00002321   -0.05480192
     atom   47 type  1   force =    -0.01047244    0.00006019    0.00676891
     atom   48 type  1   force =    -0.00749913   -0.00003096    0.00973446
     atom   49 type  1   force =    -0.01042334   -0.00000637   -0.00664411
     atom   50 type  1   force =    -0.00744480   -0.00001057   -0.00961401
     atom   51 type  1   force =    -0.04001304   -0.00000261   -0.00982837
     atom   52 type  1   force =    -0.11025845   -0.00000802    0.05482368
     atom   53 type  1   force =     0.00577478   -0.00001311    0.00484442
     atom   54 type  1   force =    -0.00577428   -0.00000238   -0.00600289
     atom   55 type  1   force =     0.00494835   -0.00001636   -0.00684319
     atom   56 type  1   force =    -0.00777316   -0.00001530    0.00574533
     atom   57 type  1   force =     0.00488986   -0.00000866    0.00689987
     atom   58 type  1   force =    -0.00777440   -0.00001308   -0.00568141
     atom   59 type  1   force =     0.00577207   -0.00000176   -0.00481548
     atom   60 type  1   force =    -0.00576619   -0.00000883    0.00600540
     atom   61 type  1   force =    -0.04001612    0.00005760    0.00988960
     atom   62 type  1   force =    -0.11028713    0.00002090   -0.05479345
     atom   63 type  1   force =    -0.01045490    0.00003661    0.00675911
     atom   64 type  1   force =    -0.00748437   -0.00002337    0.00969305
     atom   65 type  2   force =     0.16609649    0.00001148   -0.02476965
     atom   66 type  2   force =     0.00582282   -0.00000936   -0.01113748
     atom   67 type  2   force =    -0.00232964   -0.00000948   -0.00825672
     atom   68 type  2   force =     0.00147655   -0.00000711   -0.00357118
     atom   69 type  2   force =     0.00141565   -0.00000443    0.00350500
     atom   70 type  2   force =    -0.00228902   -0.00000423    0.00809904
     atom   71 type  2   force =     0.00575793   -0.00001607    0.01089965
     atom   72 type  2   force =     0.16614259    0.00000720    0.02479757
     atom   73 type  2   force =     0.16609832    0.00000766   -0.02481109
     atom   74 type  2   force =     0.00582222   -0.00002072   -0.01111771
     atom   75 type  2   force =    -0.00232610   -0.00000133   -0.00824712
     atom   76 type  2   force =     0.00147798    0.00000088   -0.00356972
     atom   77 type  2   force =     0.00141716    0.00000009    0.00349675
     atom   78 type  2   force =    -0.00228822   -0.00001021    0.00810769
     atom   79 type  2   force =     0.00575848   -0.00001971    0.01090028
     atom   80 type  2   force =     0.16615152   -0.00001007    0.02482564
     atom   81 type  2   force =     0.16608977    0.00000274   -0.02477942
     atom   82 type  2   force =     0.00581780   -0.00001747   -0.01113969
     atom   83 type  2   force =    -0.00233306   -0.00001065   -0.00825053
     atom   84 type  2   force =     0.00147944   -0.00000369   -0.00357410
     atom   85 type  2   force =     0.00141867    0.00000035    0.00349322
     atom   86 type  2   force =    -0.00227374   -0.00000488    0.00810672
     atom   87 type  2   force =     0.00580613   -0.00003188    0.01092980
     atom   88 type  2   force =     0.16607094   -0.00000670    0.02480110
     atom   89 type  2   force =     0.16609335    0.00001415   -0.02479137
     atom   90 type  2   force =     0.00581860   -0.00000128   -0.01112342
     atom   91 type  2   force =    -0.00233268   -0.00000137   -0.00825867
     atom   92 type  2   force =     0.00148164   -0.00000492   -0.00357363
     atom   93 type  2   force =     0.00142567   -0.00000339    0.00350072
     atom   94 type  2   force =    -0.00228329   -0.00000933    0.00810989
     atom   95 type  2   force =     0.00580439   -0.00000548    0.01091987
     atom   96 type  2   force =     0.16608457    0.00000016    0.02479646

     Total force =     0.606025     Total SCF correction =     0.358046
     SCF correction compared to forces is large: reduce conv_thr to get better values

     Writing all to output data dir ./calc.save/

     init_run     :      3.24s CPU      3.38s WALL (       1 calls)
     electrons    :    196.38s CPU    199.08s WALL (       3 calls)
     forces       :      1.50s CPU      1.53s WALL (       1 calls)

     Called by init_run:
     wfcinit      :      2.09s CPU      2.22s WALL (       1 calls)
     potinit      :      0.22s CPU      0.23s WALL (       1 calls)
     hinit0       :      0.68s CPU      0.68s WALL (       1 calls)

     Called by electrons:
     c_bands      :    182.52s CPU    184.82s WALL (      33 calls)
     sum_band     :     12.87s CPU     13.07s WALL (      33 calls)
     v_of_rho     :      0.85s CPU      0.86s WALL (      35 calls)
     mix_rho      :      0.07s CPU      0.07s WALL (      33 calls)

     Called by c_bands:
     init_us_2    :      0.35s CPU      0.35s WALL (     136 calls)
     init_us_2:cp :      0.35s CPU      0.35s WALL (     136 calls)
     cegterg      :    180.17s CPU    182.44s WALL (      66 calls)

     Called by *egterg:
     cdiaghg      :     41.39s CPU     41.62s WALL (     398 calls)
     h_psi        :     98.62s CPU    100.54s WALL (     404 calls)
     g_psi        :      0.15s CPU      0.16s WALL (     336 calls)

     Called by h_psi:
     h_psi:calbec :     15.41s CPU     15.97s WALL (     404 calls)
     vloc_psi     :     66.13s CPU     67.35s WALL (     404 calls)
     add_vuspsi   :     12.24s CPU     12.29s WALL (     404 calls)

     General routines
     calbec       :     19.69s CPU     20.39s WALL (     581 calls)
     fft          :      0.86s CPU      0.87s WALL (     356 calls)
     ffts         :      0.03s CPU      0.03s WALL (      33 calls)
     fftw         :     75.13s CPU     76.48s WALL (  188006 calls)
     fftc         :   8096.14s CPU   8204.51s WALL (10201008 calls)
     fftcw        :      3.75s CPU      3.85s WALL (    8298 calls)

     Parallel routines
     fft_scatt_xy :    216.17s CPU    219.15s WALL (10397701 calls)
     fft_scatt_yz :   6154.94s CPU   6246.01s WALL (10397701 calls)

     EXX routines
     exx_grid     :      0.00s CPU      0.00s WALL (       1 calls)
     exxinit      :     54.38s CPU     56.99s WALL (       3 calls)
     vexx         :   9061.53s CPU   9181.07s WALL (       6 calls)
     matcalc      :      3.63s CPU      3.75s WALL (     169 calls)
     aceupdate    :      0.16s CPU      0.16s WALL (       6 calls)
     vexxace      :      5.54s CPU      5.65s WALL (     153 calls)
     aceinit      :   9061.87s CPU   9181.42s WALL (       6 calls)

     PWSCF        :      2h35m CPU      2h37m WALL


   This run was terminated on:   2:35:17  24Feb2023            

=------------------------------------------------------------------------------=
   JOB DONE.
=------------------------------------------------------------------------------=
