:MDSTEP: 20
:R(Bohr):
  5.3411917678E+01   1.4901574784E-02   4.6420211933E+01
  3.9982347131E+00   5.3077669816E+01   5.0248792078E+01
  5.3478353320E+01   3.1877574601E+00   4.9679054259E+01
  5.3135734804E+01   3.9674345347E-01   3.8235603366E+01
  3.6658329930E+00   5.3479860014E+01   4.1598681890E+01
  7.1064911646E+00   3.5792211498E-01   4.5645672997E+01
  1.0689653146E+01   5.3347198879E+01   4.9984463676E+01
  5.3452166740E+01   4.0138071039E+00   4.2668897719E+01
  3.7693594096E+00   3.5068798180E+00   4.6123379483E+01
  7.3190542683E+00   3.7650714352E+00   4.9157028323E+01
  5.3486572612E+01   7.4329521060E+00   4.6116958977E+01
  3.9664776989E+00   7.6420349737E+00   5.0267579888E+01
  5.3511865297E+01   1.1714893224E+01   4.9534442649E+01
  6.5818406763E-01   5.3438924505E+01   3.0228330397E+01
  3.0204868741E+00   3.5217283375E-01   3.4087304818E+01
  7.7784902304E+00   5.2960242373E+01   3.8406028839E+01
  1.1192920482E+01   5.3426962960E+01   4.2401184061E+01
  1.5089490696E+01   3.0712597755E-01   4.5727175289E+01
  1.8954326150E+01   5.3381417696E+01   4.9683100564E+01
  5.3516653763E+01   3.9494619985E+00   3.4112139762E+01
  3.9814839731E+00   3.5836165847E+00   3.8113637695E+01
  8.2784745483E+00   3.6423115132E+00   4.2220089954E+01
  1.1393759060E+01   3.7165478224E+00   4.5933252548E+01
  1.5394692010E+01   4.3351881644E+00   4.9655176131E+01
  1.2406278649E-01   8.2697884953E+00   3.8281709625E+01
  4.1418708189E+00   7.4022182590E+00   4.1447714936E+01
  7.1196143031E+00   7.8940168844E+00   4.5728473644E+01
  1.1176510188E+01   7.6408305696E+00   4.9829493710E+01
  5.3067455257E+01   1.1350463440E+01   4.2544869419E+01
  4.1201453574E+00   1.1841770756E+01   4.6019301129E+01
  7.4422166605E+00   1.1933195595E+01   4.9722152247E+01
  5.3251703305E+01   1.5338050952E+01   4.5474581821E+01
  4.1571639824E+00   1.5511295790E+01   4.9325580491E+01
  5.3259381879E+01   1.9205015414E+01   4.9396777742E+01
  5.3387442328E+01   4.1212733332E-01   2.2730208747E+01
  3.7941028841E+00   5.3266868890E+01   2.6443209945E+01
  7.8447451392E+00   5.3335511508E+01   3.0697628089E+01
  1.1956801267E+01   5.3548754484E+01   3.4087110032E+01
  1.4628037500E+01   9.7973316310E-02   3.7843076178E+01
  1.9117505532E+01   5.3323464103E+01   4.2169208810E+01
  2.3334200312E+01   1.8707860295E-01   4.6332194014E+01
  2.7036018886E+01   2.6268198795E-01   4.9925920785E+01
  5.3424375828E+01   3.3070650674E+00   2.6722931503E+01
  4.2460775478E+00   4.2665502847E+00   3.0414126569E+01
  7.5041740500E+00   3.9520460927E+00   3.4507325033E+01
  1.1250921166E+01   4.0993262753E+00   3.8434801905E+01
  1.5651618061E+01   3.4500316478E+00   4.1774895279E+01
  1.9038605297E+01   3.5884286926E+00   4.6361150001E+01
  2.3230226383E+01   3.5752606826E+00   4.9627299396E+01
  5.3260890366E+01   7.4631371648E+00   3.0309361331E+01
  3.5292012417E+00   7.3920077781E+00   3.4529178865E+01
  7.7558794706E+00   7.3686938453E+00   3.8381176730E+01
  1.1560419977E+01   7.7858404058E+00   4.1675559050E+01
  1.4961457107E+01   7.8730017862E+00   4.5812036492E+01
  1.9088038765E+01   7.5552124919E+00   5.0150180919E+01
  5.3293345752E+01   1.1056669258E+01   3.4117447889E+01
  4.0515795100E+00   1.1630030979E+01   3.8069924029E+01
  7.0471839894E+00   1.1552150268E+01   4.2056337840E+01
  1.1491263883E+01   1.0954891239E+01   4.6127059248E+01
  1.5855655517E+01   1.1661680791E+01   4.9328864590E+01
  5.3123170201E+01   1.5893031591E+01   3.8317221857E+01
  3.7204390985E+00   1.5554804793E+01   4.2421530956E+01
  7.7619180006E+00   1.5700311047E+01   4.5383096519E+01
  1.1494520254E+01   1.4802553511E+01   4.9135335285E+01
  5.3367852646E+01   1.9159596608E+01   4.2253775818E+01
  4.1436820711E+00   1.9143232840E+01   4.5646477591E+01
  7.9056661354E+00   1.8777463890E+01   4.9606685190E+01
  2.5350631147E-01   2.3012168134E+01   4.6120233106E+01
  4.2181226070E+00   2.2836097348E+01   4.9708423210E+01
  5.3366694698E+01   2.7216452024E+01   4.9615941217E+01
  5.3475385464E+01   1.0806393252E-01   1.5079890446E+01
  3.4171342114E+00   5.3515485171E+01   1.8910107620E+01
  7.5643965956E+00   5.3156256083E+01   2.2436320898E+01
  1.1444402850E+01   3.4091875475E-01   2.6973002997E+01
  1.5619563370E+01   5.3337476177E+01   3.0586304189E+01
  1.8611539299E+01   5.3276496345E+01   3.4638709950E+01
  2.3131717214E+01   5.3400961917E+01   3.8639778532E+01
  2.6755677219E+01   5.3286518404E+01   4.2334928917E+01
  3.1042075362E+01   5.3338833524E+01   4.5757220802E+01
  3.4402131648E+01   5.3082347822E+01   4.9506326170E+01
  3.1225392259E-01   3.8999527632E+00   1.8595178874E+01
  3.7424701695E+00   3.6594493276E+00   2.3510734231E+01
  8.1916614168E+00   3.8597988647E+00   2.6981166597E+01
  1.1489339056E+01   3.7475541626E+00   3.0842959346E+01
  1.5094768087E+01   4.0414410904E+00   3.4227263850E+01
  1.8871208339E+01   3.4594204393E+00   3.7883920100E+01
  2.2981936013E+01   3.6791849680E+00   4.1941781093E+01
  2.7340420017E+01   3.3838089818E+00   4.5602425673E+01
  3.0808416406E+01   3.8741925315E+00   4.9559573960E+01
  8.1503665368E-02   8.0783951814E+00   2.2405873389E+01
  3.5270492229E+00   8.1510946162E+00   2.6324710840E+01
  7.9586799920E+00   7.4127200826E+00   3.0582375173E+01
  1.1386785423E+01   7.5836514712E+00   3.4233911612E+01
  1.5557464415E+01   7.0841299019E+00   3.8313613335E+01
  1.9185041990E+01   6.9237629865E+00   4.2524788076E+01
  2.2778776069E+01   7.2636907742E+00   4.5808389036E+01
  2.7002137392E+01   7.4584880151E+00   5.0004776403E+01
  3.6253727845E-02   1.1315139072E+01   2.7009008913E+01
  3.7579516720E+00   1.1381079179E+01   3.0902929927E+01
  7.5242515972E+00   1.1226808560E+01   3.4279485498E+01
  1.1430934614E+01   1.1345918265E+01   3.8739761814E+01
  1.5565169039E+01   1.1164998929E+01   4.2423241220E+01
  1.9724163457E+01   1.1495392124E+01   4.5684755770E+01
  2.2436991913E+01   1.1225834125E+01   5.0130498950E+01
  1.8662550080E-01   1.5677681846E+01   3.0010800339E+01
  3.8883537462E+00   1.5580876370E+01   3.3864061368E+01
  7.2469975289E+00   1.5676399055E+01   3.8227204727E+01
  1.2027007830E+01   1.5416068336E+01   4.2714723641E+01
  1.5524076043E+01   1.5389306580E+01   4.5919289328E+01
  1.9586333351E+01   1.5302491411E+01   4.9420415047E+01
  5.3143301599E+01   1.9414066946E+01   3.4489471204E+01
  3.2639800475E+00   1.9241686249E+01   3.7926897088E+01
  7.9876329611E+00   1.9638532637E+01   4.1965180679E+01
  1.1823490704E+01   1.8900715642E+01   4.6455771603E+01
  1.4807319913E+01   1.9544480088E+01   5.0197227492E+01
  1.6207126768E-01   2.3463592741E+01   3.8034138814E+01
  3.9681663454E+00   2.2672100449E+01   4.2207966689E+01
  8.0731737887E+00   2.2965471036E+01   4.6174090213E+01
  1.1410960104E+01   2.3079029458E+01   4.9809789496E+01
  5.3507920571E+01   2.6529345163E+01   4.2068673695E+01
  3.2138565914E+00   2.6908301386E+01   4.5898016682E+01
  7.0756057657E+00   2.6898004272E+01   5.0034183419E+01
  5.3107907921E+01   3.0863414583E+01   4.6227794404E+01
  3.8738017144E+00   3.0700689682E+01   4.9958260000E+01
  5.3517696683E+01   3.4688771578E+01   4.9974010228E+01
  1.0375386331E-01   9.2478623642E-02   7.3945067627E+00
  3.7712829132E+00   5.3472616725E+01   1.1240133979E+01
  7.8519127886E+00   4.3427410873E-01   1.5384381863E+01
  1.1293718338E+01   5.3221828299E+01   1.9085554914E+01
  1.5357602738E+01   5.3463101833E+01   2.2965325417E+01
  1.9473272624E+01   1.0536125194E-01   2.6711237561E+01
  2.3566662715E+01   5.3387841169E+01   3.0965021306E+01
  2.6855970303E+01   5.2971946460E+01   3.4569051324E+01
  3.0168011651E+01   5.3329187555E+01   3.8287997781E+01
  3.4762093824E+01   5.3480352362E+01   4.1944068950E+01
  3.8196173700E+01   4.7576959802E-01   4.6072055262E+01
  4.2493792730E+01   5.3157392741E+01   5.0346167698E+01
  3.9693298278E-02   3.8627021486E+00   1.1364312288E+01
  4.0760829626E+00   3.4710032789E+00   1.5249873695E+01
  7.4457944095E+00   3.8769544789E+00   1.9161424108E+01
  1.1728215355E+01   4.2901972700E+00   2.2890321885E+01
  1.5173500762E+01   3.6707459365E+00   2.6923456525E+01
  1.8723189705E+01   3.7326864272E+00   3.0783634378E+01
  2.2807970819E+01   3.4524525720E+00   3.4721445807E+01
  2.6350518558E+01   3.7549210522E+00   3.8466426188E+01
  3.0569012179E+01   3.4521705801E+00   4.1894705952E+01
  3.4478346494E+01   3.8478597285E+00   4.5901220107E+01
  3.8432549579E+01   4.2366153423E+00   4.9374377735E+01
  5.3445383632E+01   7.6670026288E+00   1.5186700894E+01
  3.5452936439E+00   7.9817140774E+00   1.9307167445E+01
  7.2582335674E+00   7.8138525100E+00   2.2937586102E+01
  1.1990630931E+01   7.5697808316E+00   2.7116026845E+01
  1.5612156302E+01   7.3429732607E+00   3.0554564198E+01
  1.8827080528E+01   7.7810479226E+00   3.4308845788E+01
  2.2707015318E+01   7.5772445354E+00   3.8156619811E+01
  2.7042689837E+01   7.2093526928E+00   4.1644108402E+01
  3.0176712010E+01   7.3158598202E+00   4.5719392565E+01
  3.4528109712E+01   7.1647883923E+00   4.9735653203E+01
  8.3368086126E-02   1.1612421572E+01   1.8659464293E+01
  4.0699191002E+00   1.1724159288E+01   2.2533537567E+01
  7.4033566493E+00   1.1339687927E+01   2.6342700889E+01
  1.1712998711E+01   1.1731001793E+01   3.0735975750E+01
  1.5170891900E+01   1.1081828702E+01   3.4972957882E+01
  1.9609106519E+01   1.1390453274E+01   3.8172248464E+01
  2.2846659834E+01   1.1012466607E+01   4.1626411807E+01
  2.5984019264E+01   1.1182831068E+01   4.5852481575E+01
  3.0158755170E+01   1.1404295816E+01   4.9529471644E+01
  5.3514663532E+01   1.5660077207E+01   2.2308242256E+01
  4.0943653471E+00   1.4862200271E+01   2.6723426362E+01
  7.6637506376E+00   1.5635942915E+01   3.0771373613E+01
  1.1245569790E+01   1.5190775150E+01   3.4304628079E+01
  1.5720764141E+01   1.4654714731E+01   3.8002922854E+01
  1.9209120148E+01   1.5339083170E+01   4.2119383460E+01
  2.3083511324E+01   1.5564664153E+01   4.5820546423E+01
  2.6668213007E+01   1.5503673216E+01   4.9884473006E+01
  3.8049053230E-01   1.9125359964E+01   2.6759914636E+01
  3.8463287518E+00   1.8854798054E+01   3.0555541404E+01
  7.2304868843E+00   1.9422890238E+01   3.4423590691E+01
  1.1134047862E+01   1.9142757216E+01   3.7978529223E+01
  1.4937931918E+01   1.9455671683E+01   4.1816704950E+01
  1.9036157148E+01   1.9485232024E+01   4.6172084277E+01
  2.2808585628E+01   1.9271133638E+01   4.9842542798E+01
  2.1069877558E-01   2.3345231788E+01   3.0291884495E+01
  3.2734543164E+00   2.3010752350E+01   3.4172781697E+01
  7.5266440929E+00   2.3089861918E+01   3.7798041405E+01
  1.1759199940E+01   2.2851503640E+01   4.1800254215E+01
  1.4958582475E+01   2.3157669801E+01   4.6030288826E+01
  1.8973959861E+01   2.3232006420E+01   5.0030922316E+01
  5.3382264891E+01   2.6994113618E+01   3.4557678055E+01
  3.8765046671E+00   2.7096371813E+01   3.8110447355E+01
  7.3476184830E+00   2.6546872793E+01   4.1842967052E+01
  1.0881963572E+01   2.7161960412E+01   4.6209677109E+01
  1.5367481982E+01   2.6556437844E+01   4.9369297726E+01
  2.8258561231E-01   3.0237261388E+01   3.8206182162E+01
  4.1083293845E+00   3.1079663692E+01   4.2471329015E+01
  7.7872578705E+00   3.0849019769E+01   4.5955702551E+01
  1.1096157893E+01   3.0497700653E+01   4.9693394458E+01
  5.3228973889E+01   3.4629035244E+01   4.1714411644E+01
  4.3147713944E+00   3.4585066535E+01   4.6056045067E+01
  7.9809838486E+00   3.4328682842E+01   4.9644700179E+01
  4.0693328814E-01   3.7819307296E+01   4.5512998671E+01
  3.8429466007E+00   3.8060015423E+01   5.0077429138E+01
  2.1919458910E-01   4.1626817830E+01   4.9534909220E+01
  2.2074324103E-01   3.0188257895E-01   1.1166939697E-01
  3.8016577287E+00   5.3358206343E+01   4.2018773954E+00
  7.3255147221E+00   7.2566135354E-02   8.0144719419E+00
  1.1319969114E+01   5.3259283169E+01   1.1376849973E+01
  1.5357271569E+01   5.3444426968E+01   1.5250132723E+01
  1.9618277709E+01   1.4680614274E-01   1.8683999379E+01
  2.3300817840E+01   1.1490225624E-01   2.2772850778E+01
  2.6777337757E+01   5.3123269732E+01   2.6934852241E+01
  3.0903129404E+01   5.3335281867E+01   3.0554535620E+01
  3.3922864885E+01   5.3448783083E+01   3.4563171240E+01
  3.7969622139E+01   5.3431582641E+01   3.7834346100E+01
  4.1782936787E+01   3.5025476327E-01   4.1595889014E+01
  4.5970099116E+01   4.1202997039E-01   4.5353502376E+01
  4.8996096150E+01   8.5103652702E-02   4.9872143376E+01
  2.4648038035E-01   3.8023625418E+00   4.1298059365E+00
  4.3390821533E+00   3.8009119543E+00   7.4780341190E+00
  7.3278962373E+00   4.2568376711E+00   1.1155002846E+01
  1.1496425426E+01   3.7235812802E+00   1.5614793883E+01
  1.5084320507E+01   3.4380406683E+00   1.8689358947E+01
  1.8557482021E+01   3.9493753719E+00   2.3119527172E+01
  2.3486311151E+01   3.7160334852E+00   2.7253636143E+01
  2.6810551773E+01   3.8005341763E+00   3.0339396584E+01
  3.0683444688E+01   3.5760887339E+00   3.4424759335E+01
  3.4497678671E+01   3.9247872748E+00   3.8232821871E+01
  3.8487695313E+01   4.3007836392E+00   4.2233142747E+01
  4.2289314169E+01   3.1311564446E+00   4.6536612485E+01
  4.5873451561E+01   3.9677751812E+00   4.9816937521E+01
  6.9930209314E-02   7.9404777227E+00   7.8009266625E+00
  3.5143440336E+00   7.8886379161E+00   1.1108259052E+01
  7.9773853577E+00   7.4256339924E+00   1.5393872645E+01
  1.1502433119E+01   7.9910467901E+00   1.9026070684E+01
  1.5531131166E+01   7.6073883506E+00   2.2670700140E+01
  1.8907075406E+01   7.7333030855E+00   2.6895651960E+01
  2.2671429499E+01   7.3921865365E+00   3.0562609772E+01
  2.6579424387E+01   7.4343739379E+00   3.4234563402E+01
  3.0721947128E+01   8.0172608950E+00   3.8050697482E+01
  3.4696701571E+01   8.0405216250E+00   4.1660542674E+01
  3.8074822751E+01   7.4201478988E+00   4.5590611571E+01
  4.2394732714E+01   7.4775987063E+00   4.9550000548E+01
  8.2006345971E-02   1.1696852937E+01   1.1463666071E+01
  3.7971703533E+00   1.1083165678E+01   1.5465173339E+01
  7.7365587116E+00   1.1338180875E+01   1.9384598562E+01
  1.1533201191E+01   1.1035300687E+01   2.2810755589E+01
  1.4948566802E+01   1.1415936244E+01   2.7115675156E+01
  1.9100584156E+01   1.1606298652E+01   3.0353125769E+01
  2.3088909631E+01   1.2112696419E+01   3.4559559223E+01
  2.7388036409E+01   1.1876676204E+01   3.8457496819E+01
  3.0433468447E+01   1.1325079211E+01   4.2402772774E+01
  3.4514038344E+01   1.1278749251E+01   4.6191531031E+01
  3.8366319665E+01   1.1349701041E+01   4.9172624638E+01
  3.2700886295E-01   1.5872421529E+01   1.5158846634E+01
  4.2372783818E+00   1.5269472359E+01   1.8887154038E+01
  8.0058868045E+00   1.5527094375E+01   2.2624636879E+01
  1.1720707563E+01   1.5016088760E+01   2.6930291328E+01
  1.5371510360E+01   1.5612375284E+01   3.0091376512E+01
  1.8834013923E+01   1.5513126129E+01   3.4393753152E+01
  2.3051246028E+01   1.4932030883E+01   3.8816747686E+01
  2.6801075506E+01   1.4922531806E+01   4.2922969831E+01
  3.0895143002E+01   1.5540632412E+01   4.5909419351E+01
  3.4774236616E+01   1.5597757678E+01   4.9667158016E+01
  9.1221366021E-02   1.9517129565E+01   1.8769122120E+01
  3.9998359332E+00   1.8715048977E+01   2.3390109096E+01
  7.3862924821E+00   1.9411680872E+01   2.6883192762E+01
  1.1845886389E+01   1.9212838170E+01   3.0634922045E+01
  1.5069845115E+01   1.9143991228E+01   3.4115192080E+01
  1.8918477329E+01   1.9068111541E+01   3.8753330365E+01
  2.3147160340E+01   1.8902736558E+01   4.2533592175E+01
  2.6546680755E+01   1.9012636015E+01   4.6008511175E+01
  3.0757420218E+01   1.9257149780E+01   4.9873564439E+01
  1.0458948603E-01   2.3417659775E+01   2.2789342032E+01
  3.9001186177E+00   2.3408679195E+01   2.6928862047E+01
  7.8775360765E+00   2.2915247489E+01   3.0396473235E+01
  1.1619308954E+01   2.2877410797E+01   3.4370020079E+01
  1.5291389822E+01   2.3307996982E+01   3.7665326010E+01
  1.9174408016E+01   2.3264707803E+01   4.2141791936E+01
  2.2593476826E+01   2.2813994325E+01   4.5856840686E+01
  2.6861874079E+01   2.2906166804E+01   4.9436816875E+01
  5.3451442395E+01   2.6954616505E+01   2.7102140012E+01
  4.4016498203E+00   2.7169624167E+01   3.0308843753E+01
  7.9193276546E+00   2.7268285488E+01   3.4662600714E+01
  1.1102381558E+01   2.6213422343E+01   3.8134074563E+01
  1.4843347038E+01   2.6845952697E+01   4.2334294216E+01
  1.9146502407E+01   2.6731127974E+01   4.6397588990E+01
  2.2976441651E+01   2.6957907222E+01   4.9455194157E+01
  3.9588070771E-01   3.0520351070E+01   3.0868603665E+01
  4.2005786637E+00   3.1005343530E+01   3.4603362977E+01
  8.0957579497E+00   3.0790221045E+01   3.8125276615E+01
  1.1462987178E+01   3.0414330320E+01   4.2111995256E+01
  1.5431565774E+01   3.0994546307E+01   4.5834369974E+01
  1.9147092609E+01   3.0991189532E+01   4.9941306336E+01
  2.0453958499E-02   3.4358784359E+01   3.4284813403E+01
  4.1950549006E+00   3.4137308466E+01   3.8300530791E+01
  7.2367414736E+00   3.4925671078E+01   4.1867514973E+01
  1.1554796236E+01   3.4801712948E+01   4.6169340608E+01
  1.4737336204E+01   3.4644227578E+01   5.0170143926E+01
  1.9007799534E-01   3.8295922751E+01   3.7584887105E+01
  3.4502592444E+00   3.8756470979E+01   4.1892934215E+01
  7.7569643663E+00   3.8065555406E+01   4.6068213611E+01
  1.1861444069E+01   3.8531139474E+01   4.9689041207E+01
  9.7738371968E-02   4.2294313455E+01   4.1887793007E+01
  4.0000020435E+00   4.2261797373E+01   4.5581674627E+01
  7.5780723454E+00   4.1715055806E+01   5.0060218479E+01
  7.7530525294E-02   4.6219266951E+01   4.5244963830E+01
  3.8587954815E+00   4.6338486194E+01   4.9185696353E+01
  5.3342417525E+01   4.9854020398E+01   5.0088790864E+01
  7.7166083194E+00   5.2963187893E+01   2.2878221008E-01
  1.1287201820E+01   5.3158570921E+01   3.8911258540E+00
  1.5747800794E+01   5.3347532763E+01   7.5083848602E+00
  1.9752197765E+01   5.2972455164E+01   1.1449452253E+01
  2.2826135987E+01   5.3353347751E+01   1.5430993504E+01
  2.6820723294E+01   1.4351673076E-01   1.8753262136E+01
  3.0373363069E+01   5.2889870610E+01   2.3150020126E+01
  3.4376179696E+01   5.3250747447E+01   2.6849690482E+01
  3.8820899895E+01   2.9002393340E-01   3.0625189164E+01
  4.1774555085E+01   1.9625915594E-01   3.4703273188E+01
  4.5779788489E+01   2.8254821245E-01   3.7888003531E+01
  5.0111246873E+01   4.0078315351E-01   4.2383829235E+01
  3.8475191205E+00   3.1679630648E+00   1.5389857863E-01
  7.9061057557E+00   4.0040261522E+00   3.8999069327E+00
  1.1354796816E+01   3.6233770944E+00   7.3530121875E+00
  1.4958637601E+01   3.9824767150E+00   1.1485748799E+01
  1.8934119329E+01   4.1465147624E+00   1.5218372592E+01
  2.2673403520E+01   4.1099233920E+00   1.8979336762E+01
  2.6395696459E+01   3.8161898889E+00   2.2651018997E+01
  3.0784781089E+01   3.9826215906E+00   2.6838474550E+01
  3.4653124190E+01   3.5651333936E+00   3.0337686480E+01
  3.8390155859E+01   4.0236686858E+00   3.4488955687E+01
  4.1996892128E+01   4.0007732982E+00   3.8375347250E+01
  4.5867031364E+01   4.2419720234E+00   4.2074457176E+01
  4.9515913908E+01   3.6169608671E+00   4.6346950156E+01
  4.2847003822E-02   7.9415015743E+00   6.0052604897E-02
  3.9281487148E+00   7.4898093541E+00   3.9741083883E+00
  7.5226881207E+00   8.0073291038E+00   7.9735058496E+00
  1.1433381482E+01   7.2037267163E+00   1.1640929148E+01
  1.5367278876E+01   7.6597029551E+00   1.5108096925E+01
  1.9332676005E+01   7.5126247590E+00   1.8960832280E+01
  2.3104095424E+01   7.2076995035E+00   2.3440568061E+01
  2.6972277950E+01   7.7966241858E+00   2.7280412419E+01
  3.0955410108E+01   7.9163659894E+00   3.0569641509E+01
  3.4818303153E+01   7.2323940596E+00   3.4451199145E+01
  3.8486356475E+01   8.2196823936E+00   3.8009787486E+01
  4.1882285764E+01   7.5779117002E+00   4.1886317312E+01
  4.6112219437E+01   7.8321880932E+00   4.5932549084E+01
  4.9969804672E+01   7.6086860318E+00   4.9767178723E+01
  1.4568196961E-01   1.1603784813E+01   3.4450914596E+00
  4.2102974615E+00   1.1834668094E+01   7.0341564489E+00
  7.2894043548E+00   1.1125160410E+01   1.1863919581E+01
  1.1758700494E+01   1.1526361993E+01   1.5685666275E+01
  1.5296932600E+01   1.1755871277E+01   1.9059261484E+01
  1.8945191280E+01   1.1100417102E+01   2.2666018413E+01
  2.2766432302E+01   1.1326126019E+01   2.6641305640E+01
  2.6993405636E+01   1.1539397211E+01   3.0986986097E+01
  3.0707416443E+01   1.1458949919E+01   3.4716864716E+01
  3.4767787785E+01   1.1763914158E+01   3.8137092410E+01
  3.8045728750E+01   1.1321886419E+01   4.1811821504E+01
  4.2074481426E+01   1.1400763342E+01   4.5973148360E+01
  4.6137257408E+01   1.1991652474E+01   4.9186563782E+01
  1.0160353139E-01   1.5664748360E+01   7.1339873783E+00
  3.5832644040E+00   1.5287037351E+01   1.1086130449E+01
  8.5173402879E+00   1.5875323332E+01   1.5712035852E+01
  1.1667844168E+01   1.5516093898E+01   1.9429656563E+01
  1.5500161409E+01   1.5825608653E+01   2.2880966004E+01
  1.9064376283E+01   1.5254538573E+01   2.6970016040E+01
  2.3593718567E+01   1.5154916840E+01   3.0536695806E+01
  2.6728835101E+01   1.5222770163E+01   3.4530056419E+01
  3.0791172128E+01   1.5822260441E+01   3.7772677759E+01
  3.4067606975E+01   1.5292997600E+01   4.2214231682E+01
  3.8204277812E+01   1.5453218460E+01   4.5698920202E+01
  4.1831404213E+01   1.5229796926E+01   4.9776237094E+01
  5.3425174910E+01   1.9323727318E+01   1.1695049631E+01
  4.2546722048E+00   1.8931695841E+01   1.4891778708E+01
  6.8817610703E+00   1.9395317783E+01   1.9463021878E+01
  1.1489885003E+01   1.9517301683E+01   2.3303734199E+01
  1.5616036351E+01   1.9492017600E+01   2.6696088820E+01
  1.9562574876E+01   1.9401929734E+01   3.0814313706E+01
  2.2913313064E+01   1.8924853242E+01   3.4917172360E+01
  2.6399507079E+01   1.9349347224E+01   3.8271480012E+01
  3.0478547925E+01   1.9132022680E+01   4.2124013605E+01
  3.4193849591E+01   1.9249617407E+01   4.5551782688E+01
  3.8724381699E+01   1.9304156781E+01   4.9975686881E+01
  5.3274933341E+01   2.2960691171E+01   1.5404411420E+01
  3.7349454181E+00   2.2792126639E+01   1.8598031826E+01
  7.4534884735E+00   2.2749758453E+01   2.3498849952E+01
  1.1702258373E+01   2.2383136550E+01   2.7177192589E+01
  1.5155005051E+01   2.2948091784E+01   3.0412807058E+01
  1.8638072534E+01   2.2974599572E+01   3.3939199180E+01
  2.2765458432E+01   2.3154125122E+01   3.7877508640E+01
  2.6657921137E+01   2.2580936125E+01   4.2070581621E+01
  3.1226193838E+01   2.3114428829E+01   4.5426146317E+01
  3.4343211972E+01   2.2934616219E+01   5.0060893552E+01
  5.3215625408E+01   2.6628469360E+01   1.9352413019E+01
  3.9460997990E+00   2.6542162146E+01   2.3241926610E+01
  8.0528847834E+00   2.6633259145E+01   2.7060984856E+01
  1.1634358693E+01   2.6296888335E+01   3.0636824584E+01
  1.5524452892E+01   2.6920223798E+01   3.4292934653E+01
  1.9047525119E+01   2.6511711738E+01   3.8335350417E+01
  2.3148888895E+01   2.6841909130E+01   4.2356674120E+01
  2.7000372807E+01   2.6711026539E+01   4.5957823555E+01
  3.0829781183E+01   2.6530867298E+01   4.9651483786E+01
  5.3077269941E+01   3.0833082776E+01   2.2948586488E+01
  4.0065865589E+00   3.0704199830E+01   2.6770314279E+01
  7.6763182663E+00   3.0860099395E+01   3.0611643465E+01
  1.2041035395E+01   3.0559897112E+01   3.4240022570E+01
  1.4974557907E+01   3.0782472461E+01   3.7955897054E+01
  1.8958293561E+01   3.0738749648E+01   4.1965563949E+01
  2.2649507413E+01   3.1052782475E+01   4.5817904767E+01
  2.6745094941E+01   3.0746754534E+01   4.9782346959E+01
  5.3044680997E+01   3.4580184091E+01   2.6841564050E+01
  3.8641775996E+00   3.4358253782E+01   3.0245916229E+01
  8.1541685247E+00   3.4504444298E+01   3.4844656059E+01
  1.1628131877E+01   3.4616798444E+01   3.8596369267E+01
  1.5363353333E+01   3.4502529080E+01   4.2025500558E+01
  1.9114783836E+01   3.4935399885E+01   4.5788633650E+01
  2.3317337089E+01   3.4185694257E+01   4.9678444590E+01
  5.3516931529E+01   3.8605733471E+01   3.0578692362E+01
  4.0150131657E+00   3.8187027154E+01   3.4454494624E+01
  7.7381575184E+00   3.8492013790E+01   3.8408196482E+01
  1.1145305460E+01   3.8676779973E+01   4.2323209365E+01
  1.4779626359E+01   3.8511850950E+01   4.5765948987E+01
  1.8859027611E+01   3.8725642538E+01   4.9510904374E+01
  5.2986604002E+01   4.1844230383E+01   3.4159737302E+01
  3.5831290216E+00   4.2221935292E+01   3.8370142706E+01
  7.6581783907E+00   4.2214966543E+01   4.2086445720E+01
  1.0951049148E+01   4.2327443716E+01   4.6107040533E+01
  1.5617659609E+01   4.2026684232E+01   4.9739544097E+01
  5.3457969045E+01   4.6267093986E+01   3.8012578436E+01
  4.0619339230E+00   4.5939188993E+01   4.1684930456E+01
  7.3820666427E+00   4.5915866144E+01   4.5626700584E+01
  1.1562642273E+01   4.6093984225E+01   4.9827576399E+01
  5.3450691405E+01   5.0075804270E+01   4.1958227539E+01
  3.7204386601E+00   5.0177938180E+01   4.5996280695E+01
  7.7919273824E+00   4.9467404080E+01   4.9662769670E+01
  1.5065877964E+01   4.7784577666E-02   5.3439335336E+01
  1.9742680923E+01   5.3131940605E+01   3.7895027795E+00
  2.2744943477E+01   5.3353756346E+01   7.5746042721E+00
  2.7004631310E+01   1.3404728314E-01   1.1735128183E+01
  3.0423103501E+01   2.2221595659E-01   1.5689848458E+01
  3.4343140883E+01   5.3415308249E+01   1.9245803060E+01
  3.7885922993E+01   5.3244231965E+01   2.3024770428E+01
  4.2332929871E+01   5.3542080010E+01   2.6364473909E+01
  4.5468515584E+01   5.3484755918E+01   3.0638749524E+01
  5.0491231017E+01   8.0085710344E-02   3.4383164707E+01
  1.1746786228E+01   3.9945910261E+00   5.3049727429E+01
  1.5410238181E+01   3.3606063306E+00   3.6452288548E+00
  1.9479802140E+01   3.7266973252E+00   7.2180921512E+00
  2.2414117359E+01   3.7359443556E+00   1.2052668170E+01
  2.6680079998E+01   3.9369315648E+00   1.5660514554E+01
  3.0256795662E+01   4.2233783508E+00   1.8656923936E+01
  3.4547154572E+01   3.2248246350E+00   2.3711787976E+01
  3.8424749811E+01   3.5992656822E+00   2.6962057615E+01
  4.2375624172E+01   3.4315932913E+00   3.1053109987E+01
  4.5582555290E+01   3.8319580577E+00   3.4440365762E+01
  4.9749939821E+01   4.0997277492E+00   3.8493371975E+01
  8.0973823903E+00   7.2275166458E+00   5.3383225134E+01
  1.1211255734E+01   8.0521871939E+00   3.4799032891E+00
  1.4890504847E+01   7.6188290713E+00   7.7725098875E+00
  1.8637541990E+01   7.1638630626E+00   1.0738518049E+01
  2.2763858767E+01   8.0216568107E+00   1.5053744161E+01
  2.6814611398E+01   7.6390753866E+00   1.9378125050E+01
  3.0238808872E+01   7.7483563062E+00   2.3209631344E+01
  3.4462893525E+01   7.6260478447E+00   2.7107487130E+01
  3.8432078843E+01   7.4155830261E+00   3.0740216971E+01
  4.2074149942E+01   7.5694550421E+00   3.4605106801E+01
  4.6346601527E+01   7.6526432511E+00   3.8275959768E+01
  4.9425720353E+01   7.8990506659E+00   4.1920002085E+01
  3.8269596807E+00   1.1507352264E+01   5.3246420906E+01
  7.4708859130E+00   1.1490767520E+01   3.7656759646E+00
  1.1368686418E+01   1.1449249568E+01   7.8534115850E+00
  1.5071250840E+01   1.1572919776E+01   1.1322474750E+01
  1.8970642125E+01   1.1644968892E+01   1.5658711120E+01
  2.2929661948E+01   1.1346411846E+01   1.8671430822E+01
  2.7052772515E+01   1.1235836925E+01   2.2796870139E+01
  3.0253808359E+01   1.2229078587E+01   2.6710708458E+01
  3.4429135560E+01   1.1764305319E+01   3.0639287173E+01
  3.8666792190E+01   1.1378975206E+01   3.3688573720E+01
  4.1994951802E+01   1.1847945878E+01   3.8013290275E+01
  4.6098312336E+01   1.1868982111E+01   4.1656998973E+01
  4.9604080772E+01   1.1479684522E+01   4.5697275909E+01
  2.0381087907E-01   1.5379135710E+01   5.3339205951E+01
  4.1280469127E+00   1.5766717238E+01   4.0098476231E+00
  7.7905449067E+00   1.5134425109E+01   7.8678509203E+00
  1.1313775336E+01   1.4868313253E+01   1.1789208719E+01
  1.5874852083E+01   1.5071270201E+01   1.4921279019E+01
  1.8974338985E+01   1.5513229936E+01   1.8884648383E+01
  2.2379006257E+01   1.4820575535E+01   2.2722449288E+01
  2.6498247802E+01   1.5014807040E+01   2.6601961863E+01
  3.0159979242E+01   1.5437566450E+01   3.1153935329E+01
  3.4492158812E+01   1.5291879040E+01   3.4539185586E+01
  3.8800677910E+01   1.5932003089E+01   3.8168126435E+01
  4.1812071867E+01   1.4852610894E+01   4.2049920002E+01
  4.5861179201E+01   1.5240353105E+01   4.5781114968E+01
  4.9400250018E+01   1.5538669097E+01   5.0011815118E+01
  3.0794582810E-01   1.9153326963E+01   3.4936344108E+00
  4.4817894014E+00   1.8837685437E+01   7.5547683022E+00
  7.9842384833E+00   1.9212960907E+01   1.1827639767E+01
  1.1823215190E+01   1.9566016969E+01   1.5125759380E+01
  1.5273959470E+01   1.9282340982E+01   1.9294862175E+01
  1.8979474934E+01   1.9315984450E+01   2.2723939080E+01
  2.2860869850E+01   1.9104723916E+01   2.7085203692E+01
  2.6734357925E+01   1.9040826254E+01   3.0852429094E+01
  3.0108321302E+01   1.8971543920E+01   3.4338014400E+01
  3.4628680815E+01   1.9225377731E+01   3.7807106848E+01
  3.8068993970E+01   1.9071351200E+01   4.2227110965E+01
  4.2091219895E+01   1.9307391846E+01   4.5772387527E+01
  4.5585073784E+01   1.9190049307E+01   4.9642098751E+01
  1.5423658323E-01   2.3289409082E+01   8.0548645707E+00
  3.7388459895E+00   2.2822046765E+01   1.1549351202E+01
  7.7100685069E+00   2.2910885607E+01   1.5559331552E+01
  1.1219612456E+01   2.2940288788E+01   1.9197504093E+01
  1.4987448324E+01   2.2996743783E+01   2.2661609769E+01
  1.8976098354E+01   2.3103566202E+01   2.7047723875E+01
  2.3086517946E+01   2.2902801695E+01   3.0804516426E+01
  2.7173505746E+01   2.3126743265E+01   3.4955149001E+01
  3.0415324330E+01   2.3386471449E+01   3.8425914825E+01
  3.4305485452E+01   2.2926173884E+01   4.1864449230E+01
  3.8186484054E+01   2.2750346988E+01   4.5534737433E+01
  4.2294446569E+01   2.3241202693E+01   4.9554320998E+01
  3.3505588269E-01   2.6403124095E+01   1.1981382558E+01
  3.7396464970E+00   2.6632061471E+01   1.5335117603E+01
  7.8280068127E+00   2.6386412122E+01   1.9306394305E+01
  1.1887029545E+01   2.7204261273E+01   2.3298500238E+01
  1.5406349385E+01   2.6340250083E+01   2.6702223880E+01