
     Program PWSCF v.7.0 starts on 28Nov2022 at 23: 0:56 

     This program is part of the open-source Quantum ESPRESSO suite
     for quantum simulation of materials; please cite
         "P. Giannozzi et al., J. Phys.:Condens. Matter 21 395502 (2009);
         "P. Giannozzi et al., J. Phys.:Condens. Matter 29 465901 (2017);
         "P. Giannozzi et al., J. Chem. Phys. 152 154105 (2020);
          URL http://www.quantum-espresso.org", 
     in publications or presentations arising from this work. More details at
     http://www.quantum-espresso.org/quote

     Parallel version (MPI), running on     8 processors

     MPI processes distributed on     1 nodes
     R & G space division:  proc/nbgrp/npool/nimage =       8
     179149 MiB available memory on the printing compute node when the environment starts

     Reading input from pw.inp

     Current dimensions of program PWSCF are:
     Max number of different atomic species (ntypx) = 10
     Max number of k-points (npk) =  40000
     Max angular momentum in pseudopotentials (lmaxx) =  4
     Message from routine cell_base_init:
     DEPRECATED: use true lattice parameter, not A to a.u. conversion factor

     IMPORTANT: XC functional enforced from input :
     Exchange-correlation= PBE
                           (   1   4   3   4   0   0   0)
     Any further DFT definition will be discarded
     Please, verify this is what you really want


     --------------------------------------------
     DFT-D3 Dispersion Correction (3-body terms):
     --------------------------------------------
       Reference C6 values for interpolation: 

         atom   Coordination number   C6
         C          0.000            98.23
         C          0.987            86.49
         C          1.998            58.72
         C          2.999            51.56
         C          3.984            36.41

       Values used:

         atom   Coordination number  R0_AB[au]  C6      C8
         C          3.398            2.750     46.27   1338.24
         C          3.398            2.750     46.27   1338.24
         C          3.398            2.750     46.27   1338.24
         C          3.398            2.750     46.27   1338.24
         C          3.398            2.750     46.27   1338.24
         C          3.398            2.750     46.27   1338.24
         C          3.398            2.750     46.27   1338.24
         C          3.398            2.750     46.27   1338.24
         C          3.398            2.750     46.27   1338.24
         C          3.398            2.750     46.27   1338.24
         C          3.398            2.750     46.27   1338.24
         C          3.398            2.750     46.27   1338.24
         C          3.398            2.750     46.27   1338.24
         C          3.398            2.750     46.27   1338.24
         C          3.398            2.750     46.27   1338.24
         C          3.398            2.750     46.27   1338.24
         C          3.398            2.750     46.27   1338.24
         C          3.398            2.750     46.27   1338.24
         C          3.398            2.750     46.27   1338.24
         C          3.398            2.750     46.27   1338.24
         C          3.398            2.750     46.27   1338.24
         C          3.398            2.750     46.27   1338.24
         C          3.398            2.750     46.27   1338.24
         C          3.398            2.750     46.27   1338.24
         C          3.398            2.750     46.27   1338.24
         C          3.398            2.750     46.27   1338.24
         C          3.398            2.750     46.27   1338.24
         C          3.398            2.750     46.27   1338.24
         C          3.398            2.750     46.27   1338.24
         C          3.398            2.750     46.27   1338.24
         C          3.398            2.750     46.27   1338.24
         C          3.398            2.750     46.27   1338.24
         C          3.398            2.750     46.27   1338.24
         C          3.398            2.750     46.27   1338.23
         C          3.398            2.750     46.27   1338.24
         C          3.398            2.750     46.27   1338.23
         C          3.398            2.750     46.27   1338.24
         C          3.398            2.750     46.27   1338.24
         C          3.398            2.750     46.27   1338.24
         C          3.398            2.750     46.27   1338.24
         C          3.398            2.750     46.27   1338.24
         C          3.398            2.750     46.27   1338.24
         C          3.398            2.750     46.27   1338.24
         C          3.398            2.750     46.27   1338.24
         C          3.398            2.750     46.27   1338.24
         C          3.398            2.750     46.27   1338.24
         C          3.398            2.750     46.27   1338.24
         C          3.398            2.750     46.27   1338.24
         C          3.398            2.750     46.27   1338.24
         C          3.398            2.750     46.27   1338.23
         C          3.398            2.750     46.27   1338.23
         C          3.398            2.750     46.27   1338.24
         C          3.398            2.750     46.27   1338.24
         C          3.398            2.750     46.27   1338.24
         C          3.398            2.750     46.27   1338.24
         C          3.398            2.750     46.27   1338.24
         C          3.398            2.750     46.27   1338.24
         C          3.398            2.750     46.27   1338.24
         C          3.398            2.750     46.27   1338.24
         C          3.398            2.750     46.27   1338.24

         Molecular C6 ( Ry / a.u.^6 ) =    166575.63


     Subspace diagonalization in iterative solution of the eigenvalue problem:
     one sub-group per band group will be used
     scalapack distributed-memory algorithm (size of sub-group:  2*  2 procs)


     Parallelization info
     --------------------
     sticks:   dense  smooth     PW     G-vecs:    dense   smooth      PW
     Min        9096    9096   2274              1845142  1845142  230694
     Max        9098    9098   2275              1845144  1845144  230699
     Sum       72773   72773  18197             14761141 14761141 1845573

     Using Slab Decomposition



     bravais-lattice index     =            0
     lattice parameter (alat)  =       1.0000  a.u.
     unit-cell volume          =   27641.1721 (a.u.)^3
     number of atoms/cell      =           60
     number of atomic types    =            1
     number of electrons       =       240.00
     number of Kohn-Sham states=          149
     kinetic-energy cutoff     =     250.0000  Ry
     charge density cutoff     =    1000.0000  Ry
     scf convergence threshold =      1.0E-06
     mixing beta               =       0.7000
     number of iterations used =            8  plain     mixing
     Exchange-correlation= PBE
                           (   1   4   3   4   0   0   0)

     celldm(1)=   1.000000  celldm(2)=   0.000000  celldm(3)=   0.000000
     celldm(4)=   0.000000  celldm(5)=   0.000000  celldm(6)=   0.000000

     crystal axes: (cart. coord. in units of alat)
               a(1) = (  30.235616   0.000000   0.000000 )  
               a(2) = (   0.000000  30.235616   0.000000 )  
               a(3) = (   0.000000   0.000000  30.235616 )  

     reciprocal axes: (cart. coord. in units 2 pi/alat)
               b(1) = (  0.033074  0.000000  0.000000 )  
               b(2) = (  0.000000  0.033074  0.000000 )  
               b(3) = (  0.000000  0.000000  0.033074 )  


     PseudoPot. # 1 for C  read from file:
     ./06_C_4_1.2_1.2_pbe_n_v1.0.upf
     MD5 check sum: 7e0e17a2517474b8bea671dc4b65026c
     Pseudo is Norm-conserving + core correction, Zval =  4.0
     Generated using ONCVPSP code by D. R. Hamann
     Using radial grid of 1246 points,  4 beta functions with: 
                l(1) =   0
                l(2) =   0
                l(3) =   1
                l(4) =   1

     atomic species   valence    mass     pseudopotential
        C              4.00    12.00000     C ( 1.00)

     No symmetry found


                                    s                        frac. trans.

      isym =  1     identity                                     

 cryst.   s( 1) = (     1          0          0      )
                  (     0          1          0      )
                  (     0          0          1      )

 cart.    s( 1) = (  1.0000000  0.0000000  0.0000000 )
                  (  0.0000000  1.0000000  0.0000000 )
                  (  0.0000000  0.0000000  1.0000000 )


   Cartesian axes

     site n.     atom                  positions (alat units)
         1           C   tau(   1) = (  16.4909886  13.2277852  21.3547711  )
         2           C   tau(   2) = (  17.3396627  15.8397324  21.3547711  )
         3           C   tau(   3) = (  17.7826674  11.4499424  19.9966193  )
         4           C   tau(   4) = (  19.4296429  16.5188073  19.9966193  )
         5           C   tau(   5) = (  19.4296429  18.8550037  18.5527704  )
         6           C   tau(   6) = (  15.1178079  17.4540043  21.3547711  )
         7           C   tau(   7) = (  15.1178079  19.6515383  19.9966193  )
         8           C   tau(   8) = (  17.3396627  20.3734628  18.5527704  )
         9           C   tau(   9) = (  13.8261292   9.5599197  18.5527704  )
        10           C   tau(  10) = (  12.4529484  11.4499424  19.9966193  )
        11           C   tau(  11) = (  16.4094866   9.5599197  18.5527704  )
        12           C   tau(  12) = (  13.7446272  13.2277852  21.3547711  )
        13           C   tau(  13) = (  12.8959531  15.8397324  21.3547711  )
        14           C   tau(  14) = (  10.2310937  12.1718668  18.5527704  )
        15           C   tau(  15) = (   9.4327921  14.6287865  18.5527704  )
        16           C   tau(  16) = (  10.8059729  16.5188073  19.9966193  )
        17           C   tau(  17) = (  16.4909886   8.6940548  14.0190400  )
        18           C   tau(  18) = (  13.7446272   8.6940548  14.0190400  )
        19           C   tau(  19) = (  17.7826674   9.1137459  16.2165759  )
        20           C   tau(  20) = (  12.4529484   9.1137459  16.2165759  )
        21           C   tau(  21) = (  10.2310937  10.7280179  16.2165759  )
        22           C   tau(  22) = (  12.8959531   9.8621530  11.6828454  )
        23           C   tau(  23) = (  10.8059729  11.3806121  11.6828454  )
        24           C   tau(  24) = (   9.4327921  11.8267858  14.0190400  )
        25           C   tau(  25) = (  20.8028237  11.8267858  14.0190400  )
        26           C   tau(  26) = (  19.4296429  11.3806121  11.6828454  )
        27           C   tau(  27) = (  20.0045222  10.7280179  16.2165759  )
        28           C   tau(  28) = (  17.3396627   9.8621530  11.6828454  )
        29           C   tau(  29) = (  15.1178079  10.5840775  10.2389965  )
        30           C   tau(  30) = (  19.4296429  13.7168085  10.2389965  )
        31           C   tau(  31) = (  17.3396627  14.3958834   8.8808448  )
        32           C   tau(  32) = (  15.1178079  12.7816115   8.8808448  )
        33           C   tau(  33) = (  20.8028237  14.6287865  18.5527704  )
        34           C   tau(  34) = (  21.6514958  15.7968828  16.2165759  )
        35           C   tau(  35) = (  20.0045222  12.1718668  18.5527704  )
        36           C   tau(  36) = (  21.6514958  14.4387330  14.0190400  )
        37           C   tau(  37) = (  20.8028237  15.6068293  11.6828454  )
        38           C   tau(  38) = (  20.8028237  18.4088300  16.2165759  )
        39           C   tau(  39) = (  20.0045222  19.5075979  14.0190400  )
        40           C   tau(  40) = (  20.0045222  18.0637490  11.6828454  )
        41           C   tau(  41) = (  13.7446272  17.0078306   8.8808448  )
        42           C   tau(  42) = (  16.4909886  17.0078306   8.8808448  )
        43           C   tau(  43) = (  17.7826674  18.7856735  10.2389965  )
        44           C   tau(  44) = (  12.4529484  18.7856735  10.2389965  )
        45           C   tau(  45) = (   9.4327921  15.6068293  11.6828454  )
        46           C   tau(  46) = (  10.8059729  13.7168085  10.2389965  )
        47           C   tau(  47) = (  12.8959531  14.3958834   8.8808448  )
        48           C   tau(  48) = (  10.2310937  18.0637490  11.6828454  )
        49           C   tau(  49) = (   9.4327921  18.4088300  16.2165759  )
        50           C   tau(  50) = (   8.5841200  15.7968828  16.2165759  )
        51           C   tau(  51) = (   8.5841200  14.4387330  14.0190400  )
        52           C   tau(  52) = (  10.2310937  19.5075979  14.0190400  )
        53           C   tau(  53) = (  13.7446272  21.5415610  16.2165759  )
        54           C   tau(  54) = (  12.8959531  20.3734628  18.5527704  )
        55           C   tau(  55) = (  10.8059729  18.8550037  18.5527704  )
        56           C   tau(  56) = (  12.4529484  21.1218699  14.0190400  )
        57           C   tau(  57) = (  16.4094866  20.6756961  11.6828454  )
        58           C   tau(  58) = (  17.7826674  21.1218699  14.0190400  )
        59           C   tau(  59) = (  16.4909886  21.5415610  16.2165759  )
        60           C   tau(  60) = (  13.8261292  20.6756961  11.6828454  )

   Crystallographic axes

     site n.     atom                  positions (cryst. coord.)
         1           C   tau(   1) = (  0.5454160  0.4374902  0.7062787  )
         2           C   tau(   2) = (  0.5734847  0.5238766  0.7062787  )
         3           C   tau(   3) = (  0.5881364  0.3786906  0.6613598  )
         4           C   tau(   4) = (  0.6426078  0.5463361  0.6613598  )
         5           C   tau(   5) = (  0.6426078  0.6236024  0.6136065  )
         6           C   tau(   6) = (  0.5000000  0.5772664  0.7062787  )
         7           C   tau(   7) = (  0.5000000  0.6499467  0.6613598  )
         8           C   tau(   8) = (  0.5734847  0.6738233  0.6136065  )
         9           C   tau(   9) = (  0.4572796  0.3161807  0.6136065  )
        10           C   tau(  10) = (  0.4118636  0.3786906  0.6613598  )
        11           C   tau(  11) = (  0.5427204  0.3161807  0.6136065  )
        12           C   tau(  12) = (  0.4545840  0.4374902  0.7062787  )
        13           C   tau(  13) = (  0.4265153  0.5238766  0.7062787  )
        14           C   tau(  14) = (  0.3383789  0.4025672  0.6136065  )
        15           C   tau(  15) = (  0.3119762  0.4838263  0.6136065  )
        16           C   tau(  16) = (  0.3573922  0.5463361  0.6613598  )
        17           C   tau(  17) = (  0.5454160  0.2875435  0.4636598  )
        18           C   tau(  18) = (  0.4545840  0.2875435  0.4636598  )
        19           C   tau(  19) = (  0.5881364  0.3014242  0.5363402  )
        20           C   tau(  20) = (  0.4118636  0.3014242  0.5363402  )
        21           C   tau(  21) = (  0.3383789  0.3548139  0.5363402  )
        22           C   tau(  22) = (  0.4265153  0.3261767  0.3863935  )
        23           C   tau(  23) = (  0.3573922  0.3763976  0.3863935  )
        24           C   tau(  24) = (  0.3119762  0.3911541  0.4636598  )
        25           C   tau(  25) = (  0.6880238  0.3911541  0.4636598  )
        26           C   tau(  26) = (  0.6426078  0.3763976  0.3863935  )
        27           C   tau(  27) = (  0.6616211  0.3548139  0.5363402  )
        28           C   tau(  28) = (  0.5734847  0.3261767  0.3863935  )
        29           C   tau(  29) = (  0.5000000  0.3500533  0.3386402  )
        30           C   tau(  30) = (  0.6426078  0.4536639  0.3386402  )
        31           C   tau(  31) = (  0.5734847  0.4761234  0.2937213  )
        32           C   tau(  32) = (  0.5000000  0.4227336  0.2937213  )
        33           C   tau(  33) = (  0.6880238  0.4838263  0.6136065  )
        34           C   tau(  34) = (  0.7160924  0.5224594  0.5363402  )
        35           C   tau(  35) = (  0.6616211  0.4025672  0.6136065  )
        36           C   tau(  36) = (  0.7160924  0.4775406  0.4636598  )
        37           C   tau(  37) = (  0.6880238  0.5161737  0.3863935  )
        38           C   tau(  38) = (  0.6880238  0.6088459  0.5363402  )
        39           C   tau(  39) = (  0.6616211  0.6451861  0.4636598  )
        40           C   tau(  40) = (  0.6616211  0.5974328  0.3863935  )
        41           C   tau(  41) = (  0.4545840  0.5625098  0.2937213  )
        42           C   tau(  42) = (  0.5454160  0.5625098  0.2937213  )
        43           C   tau(  43) = (  0.5881364  0.6213094  0.3386402  )
        44           C   tau(  44) = (  0.4118636  0.6213094  0.3386402  )
        45           C   tau(  45) = (  0.3119762  0.5161737  0.3863935  )
        46           C   tau(  46) = (  0.3573922  0.4536639  0.3386402  )
        47           C   tau(  47) = (  0.4265153  0.4761234  0.2937213  )
        48           C   tau(  48) = (  0.3383789  0.5974328  0.3863935  )
        49           C   tau(  49) = (  0.3119762  0.6088459  0.5363402  )
        50           C   tau(  50) = (  0.2839076  0.5224594  0.5363402  )
        51           C   tau(  51) = (  0.2839076  0.4775406  0.4636598  )
        52           C   tau(  52) = (  0.3383789  0.6451861  0.4636598  )
        53           C   tau(  53) = (  0.4545840  0.7124565  0.5363402  )
        54           C   tau(  54) = (  0.4265153  0.6738233  0.6136065  )
        55           C   tau(  55) = (  0.3573922  0.6236024  0.6136065  )
        56           C   tau(  56) = (  0.4118636  0.6985758  0.4636598  )
        57           C   tau(  57) = (  0.5427204  0.6838193  0.3863935  )
        58           C   tau(  58) = (  0.5881364  0.6985758  0.4636598  )
        59           C   tau(  59) = (  0.5454160  0.7124565  0.5363402  )
        60           C   tau(  60) = (  0.4572796  0.6838193  0.3863935  )

     number of k points=     1  Fermi-Dirac smearing, width (Ry)=  0.0020
                       cart. coord. in units 2pi/alat
        k(    1) = (   0.0000000   0.0000000   0.0000000), wk =   2.0000000

                       cryst. coord.
        k(    1) = (   0.0000000   0.0000000   0.0000000), wk =   2.0000000

     Dense  grid: 14761141 G-vectors     FFT dimensions: ( 320, 320, 320)

     Dynamical RAM for                 wfc:     524.36 MB

     Dynamical RAM for     wfc (w. buffer):     524.36 MB

     Dynamical RAM for           str. fact:      28.15 MB

     Dynamical RAM for           local pot:       0.00 MB

     Dynamical RAM for          nlocal pot:    1689.22 MB

     Dynamical RAM for                qrad:       0.72 MB

     Dynamical RAM for          rho,v,vnew:     178.21 MB

     Dynamical RAM for               rhoin:      59.40 MB

     Dynamical RAM for            rho*nmix:     450.47 MB

     Dynamical RAM for           G-vectors:     119.66 MB

     Dynamical RAM for          h,s,v(r/c):       1.02 MB

     Dynamical RAM for          <psi|beta>:       1.09 MB

     Dynamical RAM for                 psi:    1048.72 MB

     Dynamical RAM for                hpsi:    1048.72 MB

     Dynamical RAM for      wfcinit/wfcrot:    1049.23 MB

     Estimated static dynamical RAM per process >       2.75 GB

     Estimated max dynamical RAM per process >       5.24 GB

     Estimated total dynamical RAM >      41.89 GB

     Initial potential from superposition of free atoms

     starting charge     239.9973, renormalised to     240.0000

     negative rho (up, down):  4.652E-06 0.000E+00
     Starting wfcs are random

     total cpu time spent up to now is       65.5 secs

     Self-consistent Calculation

     iteration #  1     ecut=   250.00 Ry     beta= 0.70
     Davidson diagonalization with overlap

---- Real-time Memory Report at c_bands before calling an iterative solver
          3754 MiB given to the printing process from OS
          -177 MiB allocation reported by mallinfo(arena+hblkhd)
        149360 MiB available memory on the node where the printing process lives
------------------
     ethr =  1.00E-02,  avg # of iterations = 16.0

     total cpu time spent up to now is      677.6 secs

     total energy              =    -719.67922936 Ry
     estimated scf accuracy    <       6.47193224 Ry

     iteration #  2     ecut=   250.00 Ry     beta= 0.70
     Davidson diagonalization with overlap

---- Real-time Memory Report at c_bands before calling an iterative solver
          5158 MiB given to the printing process from OS
           271 MiB allocation reported by mallinfo(arena+hblkhd)
        146574 MiB available memory on the node where the printing process lives
------------------
     ethr =  2.70E-03,  avg # of iterations =  5.0

     total cpu time spent up to now is      863.9 secs

     total energy              =    -720.67687530 Ry
     estimated scf accuracy    <       1.74215635 Ry

     iteration #  3     ecut=   250.00 Ry     beta= 0.70
     Davidson diagonalization with overlap

---- Real-time Memory Report at c_bands before calling an iterative solver
          6207 MiB given to the printing process from OS
           306 MiB allocation reported by mallinfo(arena+hblkhd)
        146572 MiB available memory on the node where the printing process lives
------------------
     ethr =  7.26E-04,  avg # of iterations = 11.0

     total cpu time spent up to now is     1045.8 secs

     total energy              =    -721.24440079 Ry
     estimated scf accuracy    <       0.37635933 Ry

     iteration #  4     ecut=   250.00 Ry     beta= 0.70
     Davidson diagonalization with overlap

---- Real-time Memory Report at c_bands before calling an iterative solver
          6211 MiB given to the printing process from OS
           306 MiB allocation reported by mallinfo(arena+hblkhd)
        146554 MiB available memory on the node where the printing process lives
------------------
     ethr =  1.57E-04,  avg # of iterations = 12.0

     total cpu time spent up to now is     1227.3 secs

     total energy              =    -721.31968907 Ry
     estimated scf accuracy    <       0.00408756 Ry

     iteration #  5     ecut=   250.00 Ry     beta= 0.70
     Davidson diagonalization with overlap

---- Real-time Memory Report at c_bands before calling an iterative solver
          6229 MiB given to the printing process from OS
           306 MiB allocation reported by mallinfo(arena+hblkhd)
        146482 MiB available memory on the node where the printing process lives
------------------
     c_bands:  2 eigenvalues not converged
     ethr =  1.70E-06,  avg # of iterations = 20.0

     total cpu time spent up to now is     1528.8 secs

     total energy              =    -721.32104664 Ry
     estimated scf accuracy    <       0.01381874 Ry

     iteration #  6     ecut=   250.00 Ry     beta= 0.70
     Davidson diagonalization with overlap

---- Real-time Memory Report at c_bands before calling an iterative solver
          6248 MiB given to the printing process from OS
           306 MiB allocation reported by mallinfo(arena+hblkhd)
        146410 MiB available memory on the node where the printing process lives
------------------
     ethr =  1.70E-06,  avg # of iterations =  8.0

     total cpu time spent up to now is     1707.0 secs

     total energy              =    -721.32323243 Ry
     estimated scf accuracy    <       0.00017774 Ry

     iteration #  7     ecut=   250.00 Ry     beta= 0.70
     Davidson diagonalization with overlap

---- Real-time Memory Report at c_bands before calling an iterative solver
          6256 MiB given to the printing process from OS
           306 MiB allocation reported by mallinfo(arena+hblkhd)
        146370 MiB available memory on the node where the printing process lives
------------------
     ethr =  7.41E-08,  avg # of iterations =  4.0

     total cpu time spent up to now is     1875.8 secs

     total energy              =    -721.32328231 Ry
     estimated scf accuracy    <       0.00004736 Ry

     iteration #  8     ecut=   250.00 Ry     beta= 0.70
     Davidson diagonalization with overlap

---- Real-time Memory Report at c_bands before calling an iterative solver
          6258 MiB given to the printing process from OS
           306 MiB allocation reported by mallinfo(arena+hblkhd)
        146357 MiB available memory on the node where the printing process lives
------------------
     ethr =  1.97E-08,  avg # of iterations =  2.0

     total cpu time spent up to now is     2023.3 secs

     total energy              =    -721.32329039 Ry
     estimated scf accuracy    <       0.00000701 Ry

     iteration #  9     ecut=   250.00 Ry     beta= 0.70
     Davidson diagonalization with overlap

---- Real-time Memory Report at c_bands before calling an iterative solver
          6258 MiB given to the printing process from OS
           306 MiB allocation reported by mallinfo(arena+hblkhd)
        146347 MiB available memory on the node where the printing process lives
------------------
     ethr =  2.92E-09,  avg # of iterations =  4.0

     total cpu time spent up to now is     2171.2 secs

     total energy              =    -721.32329138 Ry
     estimated scf accuracy    <       0.00000128 Ry

     iteration # 10     ecut=   250.00 Ry     beta= 0.70
     Davidson diagonalization with overlap

---- Real-time Memory Report at c_bands before calling an iterative solver
          6264 MiB given to the printing process from OS
           306 MiB allocation reported by mallinfo(arena+hblkhd)
        146211 MiB available memory on the node where the printing process lives
------------------
     ethr =  5.32E-10,  avg # of iterations =  4.0

     total cpu time spent up to now is     2331.6 secs

     End of self-consistent calculation

          k = 0.0000 0.0000 0.0000 (****** PWs)   bands (ev):

   -23.1151 -22.5955 -22.5952 -22.5948 -21.5958 -21.5956 -21.5953 -21.5952
   -21.5951 -20.4768 -20.4764 -20.4763 -19.8301 -19.8298 -19.8297 -19.8295
   -18.4286 -18.4285 -18.4284 -18.4283 -18.4283 -18.0629 -18.0629 -18.0629
   -18.0629 -16.5348 -16.5347 -16.5346 -16.5344 -16.5343 -16.1866 -16.1865
   -16.1864 -15.2874 -15.2873 -15.2873 -14.2857 -14.2856 -14.2854 -14.2852
   -14.2852 -13.9090 -13.9088 -13.9086 -13.6509 -12.4517 -12.4516 -12.4516
   -12.4514 -11.7053 -11.7053 -11.7052 -11.7052 -11.7051 -11.4158 -11.4157
   -11.4156 -10.9386 -10.9385 -10.9384 -10.8026 -10.2006 -10.2004 -10.2000
   -10.0848 -10.0847 -10.0847 -10.0846  -9.6439  -9.6438  -9.6437  -9.6435
    -9.6434  -9.3215  -9.3215  -9.3214  -9.3214  -9.0629  -9.0628  -9.0625
    -9.0624  -9.0623  -8.8573  -8.8573  -8.8572  -8.4892  -8.4888  -8.4887
    -8.4885  -7.6804  -7.6801  -7.6800  -7.3753  -7.3753  -7.3752  -7.3750
    -7.3749  -7.2710  -7.2707  -7.2707  -7.2705  -7.0529  -7.0528  -7.0526
    -7.0525  -7.0523  -5.6092  -5.6091  -5.6091  -5.6090  -5.6090  -5.5616
    -5.5615  -5.5614  -5.5614  -4.3687  -4.3685  -4.3684  -4.3683  -4.3682
    -2.5138  -2.5136  -2.5136  -1.3902  -1.3901  -1.3898  -0.6578  -0.6575
    -0.6574  -0.4856  -0.4854  -0.4853  -0.4850  -0.4848   0.4871   1.0971
     1.0972   1.0974   1.0975   1.0976   1.2804   1.2806   1.2806   1.4036
     1.4050   1.5000   1.5419   1.5424   1.5433

     occupation numbers 
     1.0000   1.0000   1.0000   1.0000   1.0000   1.0000   1.0000   1.0000
     1.0000   1.0000   1.0000   1.0000   1.0000   1.0000   1.0000   1.0000
     1.0000   1.0000   1.0000   1.0000   1.0000   1.0000   1.0000   1.0000
     1.0000   1.0000   1.0000   1.0000   1.0000   1.0000   1.0000   1.0000
     1.0000   1.0000   1.0000   1.0000   1.0000   1.0000   1.0000   1.0000
     1.0000   1.0000   1.0000   1.0000   1.0000   1.0000   1.0000   1.0000
     1.0000   1.0000   1.0000   1.0000   1.0000   1.0000   1.0000   1.0000
     1.0000   1.0000   1.0000   1.0000   1.0000   1.0000   1.0000   1.0000
     1.0000   1.0000   1.0000   1.0000   1.0000   1.0000   1.0000   1.0000
     1.0000   1.0000   1.0000   1.0000   1.0000   1.0000   1.0000   1.0000
     1.0000   1.0000   1.0000   1.0000   1.0000   1.0000   1.0000   1.0000
     1.0000   1.0000   1.0000   1.0000   1.0000   1.0000   1.0000   1.0000
     1.0000   1.0000   1.0000   1.0000   1.0000   1.0000   1.0000   1.0000
     1.0000   1.0000   1.0000   1.0000   1.0000   1.0000   1.0000   1.0000
     1.0000   1.0000   1.0000   1.0000   1.0000   1.0000   1.0000   1.0000
     0.0000   0.0000   0.0000   0.0000   0.0000   0.0000   0.0000   0.0000
     0.0000   0.0000   0.0000   0.0000   0.0000   0.0000   0.0000   0.0000
     0.0000   0.0000   0.0000   0.0000   0.0000   0.0000   0.0000   0.0000
     0.0000   0.0000   0.0000   0.0000   0.0000

     the Fermi energy is    -3.3038 ev

!    total energy              =    -721.32329141 Ry
     estimated scf accuracy    <       0.00000053 Ry
     smearing contrib. (-TS)   =      -0.00000000 Ry
     internal energy E=F+TS    =    -721.32329141 Ry

     The total energy is F=E-TS. E is the sum of the following terms:
     one-electron contribution =   -5869.95770221 Ry
     hartree contribution      =    2968.99974751 Ry
     xc contribution           =    -257.35624875 Ry
     ewald contribution        =    2437.12566787 Ry
     DFT-D3 Dispersion         =      -0.13475583 Ry

     convergence has been achieved in  10 iterations

     Forces acting on atoms (cartesian axes, Ry/au):

     atom    1 type  1   force =    -0.02193257    0.03018756    0.02656040
     atom    2 type  1   force =    -0.03548463   -0.01152583    0.02654213
     atom    3 type  1   force =     0.02375949   -0.03269349   -0.02150288
     atom    4 type  1   force =     0.03845003    0.01248467   -0.02150291
     atom    5 type  1   force =     0.03844646   -0.02483245    0.00155207
     atom    6 type  1   force =    -0.00000235   -0.03731393    0.02656311
     atom    7 type  1   force =    -0.00000000    0.04041596   -0.02149161
     atom    8 type  1   force =    -0.03548743    0.02889821    0.00155198
     atom    9 type  1   force =    -0.04572488   -0.00251595    0.00156467
     atom   10 type  1   force =    -0.02375621   -0.03270695   -0.02150667
     atom   11 type  1   force =     0.04569282   -0.00253513    0.00155489
     atom   12 type  1   force =     0.02191935    0.03018229    0.02654679
     atom   13 type  1   force =     0.03547311   -0.01153026    0.02655023
     atom   14 type  1   force =     0.01173889   -0.04422832    0.00155432
     atom   15 type  1   force =    -0.01650901    0.04266876    0.00156349
     atom   16 type  1   force =    -0.03844892    0.01248861   -0.02149760
     atom   17 type  1   force =    -0.02192051   -0.01025589   -0.03888700
     atom   18 type  1   force =     0.02192460   -0.01025176   -0.03886662
     atom   19 type  1   force =     0.02377378    0.00459232    0.03886319
     atom   20 type  1   force =    -0.02377157    0.00461077    0.03887317
     atom   21 type  1   force =     0.01174429   -0.02117903    0.03887567
     atom   22 type  1   force =     0.03549640   -0.02889713   -0.00155291
     atom   23 type  1   force =    -0.03844200    0.02481949   -0.00155078
     atom   24 type  1   force =    -0.01650645    0.01769644   -0.03887273
     atom   25 type  1   force =     0.01652322    0.01767736   -0.03886546
     atom   26 type  1   force =     0.03843406    0.02479568   -0.00155738
     atom   27 type  1   force =    -0.01172564   -0.02118724    0.03886473
     atom   28 type  1   force =    -0.03548325   -0.02890641   -0.00156295
     atom   29 type  1   force =     0.00000851   -0.04043713    0.02149607
     atom   30 type  1   force =     0.03845275   -0.01250879    0.02149146
     atom   31 type  1   force =    -0.03546831    0.01152058   -0.02656596
     atom   32 type  1   force =     0.00000229    0.03728922   -0.02655853
     atom   33 type  1   force =     0.01652152    0.04270321    0.00155631
     atom   34 type  1   force =     0.00297507    0.02403715    0.03889042
     atom   35 type  1   force =    -0.01171544   -0.04422538    0.00154632
     atom   36 type  1   force =     0.00297967   -0.02402519   -0.03885887
     atom   37 type  1   force =     0.01653221   -0.04268443   -0.00156696
     atom   38 type  1   force =     0.01652160   -0.01771499    0.03887976
     atom   39 type  1   force =    -0.01173688    0.02119000   -0.03887331
     atom   40 type  1   force =    -0.01172974    0.04425771   -0.00155918
     atom   41 type  1   force =     0.02191943   -0.03015632   -0.02654255
     atom   42 type  1   force =    -0.02191194   -0.03017840   -0.02655673
     atom   43 type  1   force =     0.02376113    0.03272430    0.02150874
     atom   44 type  1   force =    -0.02376516    0.03272561    0.02150804
     atom   45 type  1   force =    -0.01651888   -0.04266975   -0.00156590
     atom   46 type  1   force =    -0.03845328   -0.01248640    0.02151209
     atom   47 type  1   force =     0.03547230    0.01152361   -0.02655525
     atom   48 type  1   force =     0.01173908    0.04425228   -0.00154508
     atom   49 type  1   force =    -0.01652824   -0.01769371    0.03887569
     atom   50 type  1   force =    -0.00296923    0.02402573    0.03887689
     atom   51 type  1   force =    -0.00296548   -0.02403413   -0.03886850
     atom   52 type  1   force =     0.01172268    0.02118788   -0.03887241
     atom   53 type  1   force =     0.02192261    0.01025746    0.03886586
     atom   54 type  1   force =     0.03547396    0.02890379    0.00155629
     atom   55 type  1   force =    -0.03846359   -0.02481692    0.00155402
     atom   56 type  1   force =    -0.02377622   -0.00460002   -0.03887306
     atom   57 type  1   force =     0.04569003    0.00251153   -0.00155945
     atom   58 type  1   force =     0.02376652   -0.00460748   -0.03887303
     atom   59 type  1   force =    -0.02193510    0.01025013    0.03886654
     atom   60 type  1   force =    -0.04570494    0.00252052   -0.00155307
     The non-local contrib.  to forces
     atom    1 type  1   force =    -0.02086512    0.02869818    0.04056831
     atom    2 type  1   force =    -0.03368798   -0.01093732    0.04053138
     atom    3 type  1   force =     0.03061711   -0.04211881   -0.01354397
     atom    4 type  1   force =     0.04952204    0.01610918   -0.01358042
     atom    5 type  1   force =     0.04953768   -0.01935651    0.00834429
     atom    6 type  1   force =     0.00000138   -0.03546886    0.04055495
     atom    7 type  1   force =     0.00002419    0.05209008   -0.01354634
     atom    8 type  1   force =    -0.03368767    0.04115289    0.00831113
     atom    9 type  1   force =    -0.05152957   -0.01345773    0.00835291
     atom   10 type  1   force =    -0.03065025   -0.04211312   -0.01358505
     atom   11 type  1   force =     0.05141725   -0.01349893    0.00836394
     atom   12 type  1   force =     0.02080874    0.02866209    0.04052392
     atom   13 type  1   force =     0.03369906   -0.01096765    0.04052670
     atom   14 type  1   force =     0.00309464   -0.05308407    0.00831614
     atom   15 type  1   force =    -0.02870438    0.04472785    0.00832663
     atom   16 type  1   force =    -0.04957975    0.01605459   -0.01354864
     atom   17 type  1   force =    -0.02086961   -0.02346683   -0.04377689
     atom   18 type  1   force =     0.02077145   -0.02342520   -0.04373749
     atom   19 type  1   force =     0.03061846   -0.00672632    0.04377900
     atom   20 type  1   force =    -0.03066398   -0.00667250    0.04377024
     atom   21 type  1   force =     0.00307499   -0.03118053    0.04379279
     atom   22 type  1   force =     0.03366671   -0.04115415   -0.00830988
     atom   23 type  1   force =    -0.04956566    0.01934781   -0.00828763
     atom   24 type  1   force =    -0.02870235    0.01258461   -0.04374379
     atom   25 type  1   force =     0.02872190    0.01256146   -0.04375046
     atom   26 type  1   force =     0.04954306    0.01928829   -0.00832168
     atom   27 type  1   force =    -0.00308719   -0.03119398    0.04380956
     atom   28 type  1   force =    -0.03373489   -0.04114863   -0.00832004
     atom   29 type  1   force =    -0.00003913   -0.05214001    0.01356214
     atom   30 type  1   force =     0.04956960   -0.01612444    0.01355339
     atom   31 type  1   force =    -0.03372442    0.01096245   -0.04056433
     atom   32 type  1   force =    -0.00004091    0.03542287   -0.04053382
     atom   33 type  1   force =     0.02868755    0.04482167    0.00834942
     atom   34 type  1   force =     0.01581659    0.02708583    0.04382239
     atom   35 type  1   force =    -0.00305494   -0.05306151    0.00835313
     atom   36 type  1   force =     0.01589048   -0.02703533   -0.04370670
     atom   37 type  1   force =     0.02875511   -0.04474461   -0.00832705
     atom   38 type  1   force =     0.02870722   -0.01256536    0.04380175
     atom   39 type  1   force =    -0.00312191    0.03125018   -0.04371042
     atom   40 type  1   force =    -0.00308645    0.05317759   -0.00831337
     atom   41 type  1   force =     0.02078534   -0.02862551   -0.04053193
     atom   42 type  1   force =    -0.02084336   -0.02863918   -0.04054263
     atom   43 type  1   force =     0.03058514    0.04221692    0.01360240
     atom   44 type  1   force =    -0.03063955    0.04219360    0.01358999
     atom   45 type  1   force =    -0.02871364   -0.04475909   -0.00829641
     atom   46 type  1   force =    -0.04960226   -0.01610024    0.01360722
     atom   47 type  1   force =     0.03366263    0.01096464   -0.04052240
     atom   48 type  1   force =     0.00307649    0.05310160   -0.00832778
     atom   49 type  1   force =    -0.02876346   -0.01259409    0.04376409
     atom   50 type  1   force =    -0.01584776    0.02700684    0.04378516
     atom   51 type  1   force =    -0.01582711   -0.02708109   -0.04375634
     atom   52 type  1   force =     0.00307897    0.03119897   -0.04376938
     atom   53 type  1   force =     0.02085547    0.02343521    0.04374474
     atom   54 type  1   force =     0.03370684    0.04116085    0.00833123
     atom   55 type  1   force =    -0.04958215   -0.01935634    0.00834614
     atom   56 type  1   force =    -0.03062488    0.00673596   -0.04378681
     atom   57 type  1   force =     0.05142769    0.01349049   -0.00828134
     atom   58 type  1   force =     0.03059452    0.00669861   -0.04377117
     atom   59 type  1   force =    -0.02081962    0.02342994    0.04375826
     atom   60 type  1   force =    -0.05144073    0.01347706   -0.00831023
     The ionic contribution  to forces
     atom    1 type  1   force =     3.54311731   -4.87017063   15.46403068
     atom    2 type  1   force =     5.71908437    1.86472530   15.46421910
     atom    3 type  1   force =     6.79508493   -9.30239697   12.29767359
     atom    4 type  1   force =    10.88774460    3.58788622   12.30014772
     atom    5 type  1   force =    10.88307547    9.50866851    8.74050003
     atom    6 type  1   force =     0.00000000    6.01095516   15.46433719
     atom    7 type  1   force =     0.00000000   11.42881098   12.30168056
     atom    8 type  1   force =     5.71180791   13.16864502    8.74465536
     atom    9 type  1   force =    -3.28833866  -13.90167198    8.74747174
     atom   10 type  1   force =    -6.79508493   -9.30239697   12.29767359
     atom   11 type  1   force =     3.28833866  -13.90167198    8.74747174
     atom   12 type  1   force =    -3.54311731   -4.87017063   15.46403068
     atom   13 type  1   force =    -5.71908437    1.86472530   15.46421910
     atom   14 type  1   force =   -12.31045118   -7.49041953    8.74226983
     atom   15 type  1   force =   -14.19205298   -1.28454456    8.74898805
     atom   16 type  1   force =   -10.88774460    3.58788622   12.30014772
     atom   17 type  1   force =     3.54440909  -15.90102313   -2.80193919
     atom   18 type  1   force =    -3.54440909  -15.90102313   -2.80193919
     atom   19 type  1   force =     6.80265914  -14.94781827    2.79965735
     atom   20 type  1   force =    -6.80265914  -14.94781827    2.79965735
     atom   21 type  1   force =   -12.31373936  -11.08956022    2.79726658
     atom   22 type  1   force =    -5.71180791  -13.16864502   -8.74465536
     atom   23 type  1   force =   -10.88307547   -9.50866851   -8.74050003
     atom   24 type  1   force =   -14.19156956   -8.40127302   -2.79852856
     atom   25 type  1   force =    14.19156956   -8.40127302   -2.79852856
     atom   26 type  1   force =    10.88307547   -9.50866851   -8.74050003
     atom   27 type  1   force =    12.31373936  -11.08956022    2.79726658
     atom   28 type  1   force =     5.71180791  -13.16864502   -8.74465536
     atom   29 type  1   force =    -0.00000000  -11.42881098  -12.30168056
     atom   30 type  1   force =    10.88774460   -3.58788622  -12.30014772
     atom   31 type  1   force =     5.71908437   -1.86472530  -15.46421910
     atom   32 type  1   force =     0.00000000   -6.01095516  -15.46433719
     atom   33 type  1   force =    14.19205298   -1.28454456    8.74898805
     atom   34 type  1   force =    16.15471166    1.73311601    2.80256523
     atom   35 type  1   force =    12.31045118   -7.49041953    8.74226983
     atom   36 type  1   force =    16.15471166   -1.73311601   -2.80256523
     atom   37 type  1   force =    14.19205298    1.28454456   -8.74898805
     atom   38 type  1   force =    14.19156956    8.40127302    2.79852856
     atom   39 type  1   force =    12.31373936   11.08956022   -2.79726658
     atom   40 type  1   force =    12.31045118    7.49041953   -8.74226983
     atom   41 type  1   force =    -3.54311731    4.87017063  -15.46403068
     atom   42 type  1   force =     3.54311731    4.87017063  -15.46403068
     atom   43 type  1   force =     6.79508493    9.30239697  -12.29767359
     atom   44 type  1   force =    -6.79508493    9.30239697  -12.29767359
     atom   45 type  1   force =   -14.19205298    1.28454456   -8.74898805
     atom   46 type  1   force =   -10.88774460   -3.58788622  -12.30014772
     atom   47 type  1   force =    -5.71908437   -1.86472530  -15.46421910
     atom   48 type  1   force =   -12.31045118    7.49041953   -8.74226983
     atom   49 type  1   force =   -14.19156956    8.40127302    2.79852856
     atom   50 type  1   force =   -16.15471166    1.73311601    2.80256523
     atom   51 type  1   force =   -16.15471166   -1.73311601   -2.80256523
     atom   52 type  1   force =   -12.31373936   11.08956022   -2.79726658
     atom   53 type  1   force =    -3.54440909   15.90102313    2.80193919
     atom   54 type  1   force =    -5.71180791   13.16864502    8.74465536
     atom   55 type  1   force =   -10.88307547    9.50866851    8.74050003
     atom   56 type  1   force =    -6.80265914   14.94781827   -2.79965735
     atom   57 type  1   force =     3.28833866   13.90167198   -8.74747174
     atom   58 type  1   force =     6.80265914   14.94781827   -2.79965735
     atom   59 type  1   force =     3.54440909   15.90102313    2.80193919
     atom   60 type  1   force =    -3.28833866   13.90167198   -8.74747174
     The local contribution  to forces
     atom    1 type  1   force =    -3.54532581    4.87321717  -15.46446532
     atom    2 type  1   force =    -5.72243883   -1.86577480  -15.46475784
     atom    3 type  1   force =    -6.79443651    9.30156620  -12.30098222
     atom    4 type  1   force =   -10.88648740   -3.58745736  -12.30364683
     atom    5 type  1   force =   -10.88184868   -9.51202828   -8.74171563
     atom    6 type  1   force =     0.00008602   -6.01467609  -15.46477901
     atom    7 type  1   force =     0.00014346  -11.42765984  -12.30512596
     atom    8 type  1   force =    -5.71509467  -13.16861270   -8.74592132
     atom    9 type  1   force =     3.28518958   13.90371833   -8.74864203
     atom   10 type  1   force =     6.79422907    9.30145794  -12.30114531
     atom   11 type  1   force =    -3.28568582   13.90364519   -8.74859440
     atom   12 type  1   force =     3.54510414    4.87308995  -15.46453664
     atom   13 type  1   force =     5.72256826   -1.86601990  -15.46464878
     atom   14 type  1   force =    12.31320032    7.48828940   -8.74351219
     atom   15 type  1   force =    14.19304098    1.28757927   -8.75023266
     atom   16 type  1   force =    10.88662393   -3.58774012  -12.30356321
     atom   17 type  1   force =    -3.54663721   15.90268756    2.79950245
     atom   18 type  1   force =     3.54625975   15.90275740    2.79961956
     atom   19 type  1   force =    -6.80198376   14.95038792   -2.79718744
     atom   20 type  1   force =     6.80170777   14.95054531   -2.79717481
     atom   21 type  1   force =    12.31644623   11.08978869   -2.79485126
     atom   22 type  1   force =     5.71497528   13.16859031    8.74596796
     atom   23 type  1   force =    10.88171531    9.51198408    8.74186430
     atom   24 type  1   force =    14.19253424    8.40387295    2.79615217
     atom   25 type  1   force =   -14.19244824    8.40375702    2.79626596
     atom   26 type  1   force =   -10.88196041    9.51173671    8.74168170
     atom   27 type  1   force =   -12.31637611   11.08970205   -2.79476954
     atom   28 type  1   force =    -5.71528824   13.16838694    8.74580081
     atom   29 type  1   force =    -0.00011644   11.42755983   12.30511278
     atom   30 type  1   force =   -10.88661401    3.58751406   12.30347230
     atom   31 type  1   force =    -5.72265405    1.86589212   15.46453282
     atom   32 type  1   force =    -0.00018022    6.01459236   15.46469381
     atom   33 type  1   force =   -14.19299964    1.28816674   -8.75007589
     atom   34 type  1   force =   -16.15700082   -1.73140346   -2.79980827
     atom   35 type  1   force =   -12.31311071    7.48856956   -8.74335352
     atom   36 type  1   force =   -16.15691336    1.73179026    2.80044576
     atom   37 type  1   force =   -14.19296529   -1.28764224    8.75025134
     atom   38 type  1   force =   -14.19260014   -8.40378904   -2.79595143
     atom   39 type  1   force =   -12.31656542  -11.08952269    2.79498384
     atom   40 type  1   force =   -12.31327546   -7.48797276    8.74361107
     atom   41 type  1   force =     3.54515046   -4.87303315   15.46453089
     atom   42 type  1   force =    -3.54529497   -4.87289275   15.46448262
     atom   43 type  1   force =    -6.79445392   -9.30112214   12.30120914
     atom   44 type  1   force =     6.79434359   -9.30133148   12.30118371
     atom   45 type  1   force =    14.19294920   -1.28797879    8.75025183
     atom   46 type  1   force =    10.88643090    3.58751133   12.30374810
     atom   47 type  1   force =     5.72234534    1.86580405   15.46469389
     atom   48 type  1   force =    12.31311870   -7.48844125    8.74348951
     atom   49 type  1   force =    14.19250777   -8.40393765   -2.79620318
     atom   50 type  1   force =    16.15699288   -1.73188639   -2.80023861
     atom   51 type  1   force =    16.15705184    1.73147573    2.80010108
     atom   52 type  1   force =    12.31645141  -11.08974602    2.79470345
     atom   53 type  1   force =     3.54668538  -15.90268354   -2.79961450
     atom   54 type  1   force =     5.71534357  -13.16851821   -8.74587965
     atom   55 type  1   force =    10.88192632   -9.51196212   -8.74167975
     atom   56 type  1   force =     6.80209008  -14.95044531    2.79713496
     atom   57 type  1   force =    -3.28548054  -13.90351775    8.74876362
     atom   58 type  1   force =    -6.80192702  -14.95042217    2.79723992
     atom   59 type  1   force =    -3.54640230  -15.90275823   -2.79966690
     atom   60 type  1   force =     3.28562917  -13.90353482    8.74868510
     The core correction contribution to forces
     atom    1 type  1   force =     0.00077032   -0.00105940   -0.01368290
     atom    2 type  1   force =     0.00124369    0.00040416   -0.01368165
     atom    3 type  1   force =    -0.00753653    0.01037234   -0.00494939
     atom    4 type  1   force =    -0.01219255   -0.00396233   -0.00494785
     atom    5 type  1   force =    -0.01219351   -0.00265363   -0.00575744
     atom    6 type  1   force =     0.00000028    0.00130934   -0.01368209
     atom    7 type  1   force =    -0.00000050   -0.01282190   -0.00494943
     atom    8 type  1   force =     0.00124394   -0.01241816   -0.00575615
     atom    9 type  1   force =     0.00830775    0.00931425   -0.00575762
     atom   10 type  1   force =     0.00753717    0.01037165   -0.00494739
     atom   11 type  1   force =    -0.00830432    0.00931597   -0.00575809
     atom   12 type  1   force =    -0.00076886   -0.00105811   -0.01368094
     atom   13 type  1   force =    -0.00124387    0.00040419   -0.01368069
     atom   14 type  1   force =     0.00629180    0.01077661   -0.00575629
     atom   15 type  1   force =     0.01142484   -0.00502025   -0.00575665
     atom   16 type  1   force =     0.01219594   -0.00396115   -0.00494919
     atom   17 type  1   force =     0.00077039    0.01176535    0.00706511
     atom   18 type  1   force =    -0.00076757    0.01176365    0.00706378
     atom   19 type  1   force =    -0.00753650    0.00906551   -0.00706514
     atom   20 type  1   force =     0.00753740    0.00906347   -0.00706524
     atom   21 type  1   force =     0.00629240    0.00996854   -0.00706637
     atom   22 type  1   force =    -0.00124355    0.01241806    0.00575666
     atom   23 type  1   force =     0.01219438    0.00265356    0.00575582
     atom   24 type  1   force =     0.01142465    0.00290334    0.00706374
     atom   25 type  1   force =    -0.01142537    0.00290389    0.00706486
     atom   26 type  1   force =    -0.01219450    0.00265545    0.00575662
     atom   27 type  1   force =    -0.00629181    0.00996883   -0.00706681
     atom   28 type  1   force =     0.00124570    0.01241706    0.00575591
     atom   29 type  1   force =     0.00000139    0.01282374    0.00494864
     atom   30 type  1   force =    -0.01219535    0.00396318    0.00494893
     atom   31 type  1   force =     0.00124463   -0.00040459    0.01368206
     atom   32 type  1   force =     0.00000092   -0.00130731    0.01368070
     atom   33 type  1   force =    -0.01142377   -0.00502137   -0.00575701
     atom   34 type  1   force =    -0.01094870   -0.00436718   -0.00706615
     atom   35 type  1   force =    -0.00629356    0.01077650   -0.00575764
     atom   36 type  1   force =    -0.01095222    0.00436623    0.00706312
     atom   37 type  1   force =    -0.01142697    0.00501985    0.00575693
     atom   38 type  1   force =    -0.01142528   -0.00290386   -0.00706572
     atom   39 type  1   force =    -0.00629107   -0.00997013    0.00706260
     atom   40 type  1   force =    -0.00629273   -0.01077966    0.00575669
     atom   41 type  1   force =    -0.00076690    0.00105639    0.01368143
     atom   42 type  1   force =     0.00076940    0.00105782    0.01368165
     atom   43 type  1   force =    -0.00753521   -0.01037480    0.00494724
     atom   44 type  1   force =     0.00753735   -0.01037495    0.00494744
     atom   45 type  1   force =     0.01142463    0.00501975    0.00575529
     atom   46 type  1   force =     0.01219630    0.00396232    0.00494724
     atom   47 type  1   force =    -0.00124282   -0.00040495    0.01368056
     atom   48 type  1   force =     0.00629225   -0.01077792    0.00575717
     atom   49 type  1   force =     0.01142735   -0.00290330   -0.00706507
     atom   50 type  1   force =     0.01095023   -0.00436587   -0.00706623
     atom   51 type  1   force =     0.01094960    0.00436670    0.00706403
     atom   52 type  1   force =     0.00629212   -0.00996919    0.00706419
     atom   53 type  1   force =    -0.00076934   -0.01176353   -0.00706427
     atom   54 type  1   force =    -0.00124386   -0.01241808   -0.00575690
     atom   55 type  1   force =     0.01219589   -0.00265312   -0.00575759
     atom   56 type  1   force =     0.00753723   -0.00906606    0.00706541
     atom   57 type  1   force =    -0.00830404   -0.00931481    0.00575490
     atom   58 type  1   force =    -0.00753502   -0.00906395    0.00706484
     atom   59 type  1   force =     0.00076889   -0.01176365   -0.00706531
     atom   60 type  1   force =     0.00830577   -0.00931400    0.00575604
     The Hubbard contrib.    to forces
     atom    1 type  1   force =     0.00000000    0.00000000    0.00000000
     atom    2 type  1   force =     0.00000000    0.00000000    0.00000000
     atom    3 type  1   force =     0.00000000    0.00000000    0.00000000
     atom    4 type  1   force =     0.00000000    0.00000000    0.00000000
     atom    5 type  1   force =     0.00000000    0.00000000    0.00000000
     atom    6 type  1   force =     0.00000000    0.00000000    0.00000000
     atom    7 type  1   force =     0.00000000    0.00000000    0.00000000
     atom    8 type  1   force =     0.00000000    0.00000000    0.00000000
     atom    9 type  1   force =     0.00000000    0.00000000    0.00000000
     atom   10 type  1   force =     0.00000000    0.00000000    0.00000000
     atom   11 type  1   force =     0.00000000    0.00000000    0.00000000
     atom   12 type  1   force =     0.00000000    0.00000000    0.00000000
     atom   13 type  1   force =     0.00000000    0.00000000    0.00000000
     atom   14 type  1   force =     0.00000000    0.00000000    0.00000000
     atom   15 type  1   force =     0.00000000    0.00000000    0.00000000
     atom   16 type  1   force =     0.00000000    0.00000000    0.00000000
     atom   17 type  1   force =     0.00000000    0.00000000    0.00000000
     atom   18 type  1   force =     0.00000000    0.00000000    0.00000000
     atom   19 type  1   force =     0.00000000    0.00000000    0.00000000
     atom   20 type  1   force =     0.00000000    0.00000000    0.00000000
     atom   21 type  1   force =     0.00000000    0.00000000    0.00000000
     atom   22 type  1   force =     0.00000000    0.00000000    0.00000000
     atom   23 type  1   force =     0.00000000    0.00000000    0.00000000
     atom   24 type  1   force =     0.00000000    0.00000000    0.00000000
     atom   25 type  1   force =     0.00000000    0.00000000    0.00000000
     atom   26 type  1   force =     0.00000000    0.00000000    0.00000000
     atom   27 type  1   force =     0.00000000    0.00000000    0.00000000
     atom   28 type  1   force =     0.00000000    0.00000000    0.00000000
     atom   29 type  1   force =     0.00000000    0.00000000    0.00000000
     atom   30 type  1   force =     0.00000000    0.00000000    0.00000000
     atom   31 type  1   force =     0.00000000    0.00000000    0.00000000
     atom   32 type  1   force =     0.00000000    0.00000000    0.00000000
     atom   33 type  1   force =     0.00000000    0.00000000    0.00000000
     atom   34 type  1   force =     0.00000000    0.00000000    0.00000000
     atom   35 type  1   force =     0.00000000    0.00000000    0.00000000
     atom   36 type  1   force =     0.00000000    0.00000000    0.00000000
     atom   37 type  1   force =     0.00000000    0.00000000    0.00000000
     atom   38 type  1   force =     0.00000000    0.00000000    0.00000000
     atom   39 type  1   force =     0.00000000    0.00000000    0.00000000
     atom   40 type  1   force =     0.00000000    0.00000000    0.00000000
     atom   41 type  1   force =     0.00000000    0.00000000    0.00000000
     atom   42 type  1   force =     0.00000000    0.00000000    0.00000000
     atom   43 type  1   force =     0.00000000    0.00000000    0.00000000
     atom   44 type  1   force =     0.00000000    0.00000000    0.00000000
     atom   45 type  1   force =     0.00000000    0.00000000    0.00000000
     atom   46 type  1   force =     0.00000000    0.00000000    0.00000000
     atom   47 type  1   force =     0.00000000    0.00000000    0.00000000
     atom   48 type  1   force =     0.00000000    0.00000000    0.00000000
     atom   49 type  1   force =     0.00000000    0.00000000    0.00000000
     atom   50 type  1   force =     0.00000000    0.00000000    0.00000000
     atom   51 type  1   force =     0.00000000    0.00000000    0.00000000
     atom   52 type  1   force =     0.00000000    0.00000000    0.00000000
     atom   53 type  1   force =     0.00000000    0.00000000    0.00000000
     atom   54 type  1   force =     0.00000000    0.00000000    0.00000000
     atom   55 type  1   force =     0.00000000    0.00000000    0.00000000
     atom   56 type  1   force =     0.00000000    0.00000000    0.00000000
     atom   57 type  1   force =     0.00000000    0.00000000    0.00000000
     atom   58 type  1   force =     0.00000000    0.00000000    0.00000000
     atom   59 type  1   force =     0.00000000    0.00000000    0.00000000
     atom   60 type  1   force =     0.00000000    0.00000000    0.00000000
     The SCF correction term to forces
     atom    1 type  1   force =     0.00011830   -0.00015310    0.00001159
     atom    2 type  1   force =    -0.00009382   -0.00007675    0.00013367
     atom    3 type  1   force =     0.00009270   -0.00020250   -0.00011506
     atom    4 type  1   force =    -0.00003561   -0.00005710    0.00010710
     atom    5 type  1   force =    -0.00002388    0.00014963    0.00002565
     atom    6 type  1   force =    -0.00009106    0.00013722    0.00003494
     atom    7 type  1   force =    -0.00016819    0.00010463    0.00003021
     atom    8 type  1   force =    -0.00015860    0.00010446    0.00010805
     atom    9 type  1   force =     0.00034398   -0.00016538   -0.00002022
     atom   10 type  1   force =     0.00014846   -0.00011269    0.00008332
     atom   11 type  1   force =     0.00022702   -0.00007195   -0.00008818
     atom   12 type  1   force =     0.00014301    0.00000365    0.00011175
     atom   13 type  1   force =    -0.00006010    0.00019421    0.00003644
     atom   14 type  1   force =    -0.00006389   -0.00000360    0.00007862
     atom   15 type  1   force =    -0.00006788    0.00029369    0.00008030
     atom   16 type  1   force =    -0.00004755    0.00028300   -0.00000165
     atom   17 type  1   force =     0.00015660    0.00002457    0.00000504
     atom   18 type  1   force =     0.00031823   -0.00008107   -0.00012976
     atom   19 type  1   force =     0.00006922    0.00001898   -0.00006012
     atom   20 type  1   force =     0.00025156   -0.00017173   -0.00005390
     atom   21 type  1   force =     0.00000167   -0.00014644   -0.00000411
     atom   22 type  1   force =     0.00030547   -0.00008138   -0.00015600
     atom   23 type  1   force =     0.00018676   -0.00011137   -0.00022670
     atom   24 type  1   force =    -0.00004367   -0.00008600   -0.00007530
     atom   25 type  1   force =    -0.00004647    0.00003344   -0.00017627
     atom   26 type  1   force =     0.00007106    0.00016983   -0.00001744
     atom   27 type  1   force =    -0.00004361   -0.00005485   -0.00011310
     atom   28 type  1   force =     0.00008461    0.00010818    0.00001202
     atom   29 type  1   force =     0.00016166    0.00002055   -0.00002622
     atom   30 type  1   force =     0.00004897   -0.00001106    0.00008329
     atom   31 type  1   force =     0.00017323   -0.00007226    0.00010143
     atom   32 type  1   force =     0.00022146   -0.00003600    0.00003648
     atom   33 type  1   force =     0.00005275   -0.00035203   -0.00010608
     atom   34 type  1   force =     0.00008508   -0.00023583   -0.00036485
     atom   35 type  1   force =    -0.00004228   -0.00030327   -0.00012370
     atom   36 type  1   force =    -0.00006813   -0.00019031   -0.00035237
     atom   37 type  1   force =    -0.00003527   -0.00023097   -0.00010094
     atom   38 type  1   force =     0.00011842   -0.00003694   -0.00017301
     atom   39 type  1   force =     0.00016845   -0.00017841   -0.00020334
     atom   40 type  1   force =     0.00013885   -0.00037587   -0.00018417
     atom   41 type  1   force =     0.00011820   -0.00007109   -0.00009287
     atom   42 type  1   force =     0.00008726   -0.00022132   -0.00004831
     atom   43 type  1   force =     0.00014240   -0.00030817   -0.00016091
     atom   44 type  1   force =     0.00001411   -0.00007404   -0.00012397
     atom   45 type  1   force =     0.00002350    0.00013483   -0.00012938
     atom   46 type  1   force =     0.00016327   -0.00000928   -0.00022401
     atom   47 type  1   force =     0.00019740    0.00001700   -0.00008935
     atom   48 type  1   force =     0.00003562    0.00016144   -0.00003457
     atom   49 type  1   force =     0.00001943    0.00016112    0.00011167
     atom   50 type  1   force =    -0.00004373    0.00031337    0.00008926
     atom   51 type  1   force =    -0.00011896    0.00016057    0.00003141
     atom   52 type  1   force =    -0.00002881    0.00009307    0.00013532
     atom   53 type  1   force =    -0.00019164    0.00000103    0.00011855
     atom   54 type  1   force =    -0.00012509    0.00000751    0.00005133
     atom   55 type  1   force =    -0.00003088    0.00009833   -0.00000999
     atom   56 type  1   force =    -0.00017435    0.00001987    0.00011164
     atom   57 type  1   force =     0.00000821   -0.00007357   -0.00016364
     atom   58 type  1   force =     0.00002767    0.00002452   -0.00000837
     atom   59 type  1   force =    -0.00014139    0.00007378    0.00015916
     atom   60 type  1   force =    -0.00016251   -0.00003488   -0.00005099

     DFT-D3 dispersion contribution to forces:
     atom    1 type  1   force =     0.00025140   -0.00034554    0.00009871
     atom    2 type  1   force =     0.00040690    0.00013271    0.00009816
     atom    3 type  1   force =    -0.00006323    0.00008537    0.00041486
     atom    4 type  1   force =    -0.00010209   -0.00003481    0.00041805
     atom    5 type  1   force =    -0.00010166    0.00038696    0.00015586
     atom    6 type  1   force =     0.00000000    0.00042842    0.00009783
     atom    7 type  1   force =     0.00000000   -0.00010887    0.00042003
     atom    8 type  1   force =     0.00040063    0.00002582    0.00015560
     atom    9 type  1   force =     0.00030099   -0.00025430    0.00016056
     atom   10 type  1   force =     0.00006323    0.00008537    0.00041486
     atom   11 type  1   force =    -0.00030099   -0.00025430    0.00016056
     atom   12 type  1   force =    -0.00025140   -0.00034554    0.00009871
     atom   13 type  1   force =    -0.00040690    0.00013271    0.00009816
     atom   14 type  1   force =    -0.00033383    0.00021199    0.00015889
     atom   15 type  1   force =    -0.00015062   -0.00036811    0.00015851
     atom   16 type  1   force =     0.00010209   -0.00003481    0.00041805
     atom   17 type  1   force =     0.00024920   -0.00024428    0.00025717
     atom   18 type  1   force =    -0.00024920   -0.00024428    0.00025717
     atom   19 type  1   force =    -0.00005380   -0.00033638   -0.00025978
     atom   20 type  1   force =     0.00005380   -0.00033638   -0.00025978
     atom   21 type  1   force =    -0.00033268   -0.00004994   -0.00026127
     atom   22 type  1   force =    -0.00040063   -0.00002582   -0.00015560
     atom   23 type  1   force =     0.00010166   -0.00038696   -0.00015586
     atom   24 type  1   force =    -0.00015079   -0.00030631    0.00025970
     atom   25 type  1   force =     0.00015079   -0.00030631    0.00025970
     atom   26 type  1   force =    -0.00010166   -0.00038696   -0.00015586
     atom   27 type  1   force =     0.00033268   -0.00004994   -0.00026127
     atom   28 type  1   force =     0.00040063   -0.00002582   -0.00015560
     atom   29 type  1   force =     0.00000000    0.00010887   -0.00042003
     atom   30 type  1   force =    -0.00010209    0.00003481   -0.00041805
     atom   31 type  1   force =     0.00040690   -0.00013271   -0.00009816
     atom   32 type  1   force =     0.00000000   -0.00042842   -0.00009783
     atom   33 type  1   force =     0.00015062   -0.00036811    0.00015851
     atom   34 type  1   force =     0.00031022   -0.00015910   -0.00025724
     atom   35 type  1   force =     0.00033383    0.00021199    0.00015889
     atom   36 type  1   force =     0.00031022    0.00015910    0.00025724
     atom   37 type  1   force =     0.00015062    0.00036811   -0.00015851
     atom   38 type  1   force =     0.00015079    0.00030631   -0.00025970
     atom   39 type  1   force =     0.00033268    0.00004994    0.00026127
     atom   40 type  1   force =     0.00033383   -0.00021199   -0.00015889
     atom   41 type  1   force =    -0.00025140    0.00034554   -0.00009871
     atom   42 type  1   force =     0.00025140    0.00034554   -0.00009871
     atom   43 type  1   force =    -0.00006323   -0.00008537   -0.00041486
     atom   44 type  1   force =     0.00006323   -0.00008537   -0.00041486
     atom   45 type  1   force =    -0.00015062    0.00036811   -0.00015851
     atom   46 type  1   force =     0.00010209    0.00003481   -0.00041805
     atom   47 type  1   force =    -0.00040690   -0.00013271   -0.00009816
     atom   48 type  1   force =    -0.00033383   -0.00021199   -0.00015889
     atom   49 type  1   force =    -0.00015079    0.00030631   -0.00025970
     atom   50 type  1   force =    -0.00031022   -0.00015910   -0.00025724
     atom   51 type  1   force =    -0.00031022    0.00015910    0.00025724
     atom   52 type  1   force =    -0.00033268    0.00004994    0.00026127
     atom   53 type  1   force =    -0.00024920    0.00024428   -0.00025717
     atom   54 type  1   force =    -0.00040063    0.00002582    0.00015560
     atom   55 type  1   force =     0.00010166    0.00038696    0.00015586
     atom   56 type  1   force =     0.00005380    0.00033638    0.00025978
     atom   57 type  1   force =    -0.00030099    0.00025430   -0.00016056
     atom   58 type  1   force =    -0.00005380    0.00033638    0.00025978
     atom   59 type  1   force =     0.00024920    0.00024428   -0.00025717
     atom   60 type  1   force =     0.00030099    0.00025430   -0.00016056

     Total force =     0.354709     Total SCF correction =     0.001861

     DFT-D3 dispersion Force =     0.003338


     Computing stress (Cartesian axis) and pressure

          total   stress  (Ry/bohr**3)                   (kbar)     P=        8.32
   0.00005660   0.00000002   0.00000001            8.33        0.00        0.00
   0.00000002   0.00005659  -0.00000001            0.00        8.32       -0.00
   0.00000001  -0.00000001   0.00005659            0.00       -0.00        8.32

     kinetic stress (kbar)   1792.69      0.00      0.00
                                0.00   1792.69     -0.00
                                0.00     -0.00   1792.69

     local   stress (kbar) -10806.08     -0.01     -0.01
                               -0.01 -10806.06      0.05
                               -0.01      0.05 -10807.43

     nonloc. stress (kbar)   -168.19     -0.00     -0.00
                               -0.00   -168.19      0.00
                               -0.00      0.00   -168.19

     hartree stress (kbar)   5266.75      0.01      0.01
                                0.01   5266.74     -0.02
                                0.01     -0.02   5267.39

     exc-cor stress (kbar)   -142.00      0.00      0.00
                                0.00   -142.00     -0.00
                                0.00     -0.00   -142.00

     corecor stress (kbar)   -258.19     -0.00     -0.00
                               -0.00   -258.19      0.00
                               -0.00      0.00   -258.19

     ewald   stress (kbar)   4323.19      0.00     -0.00
                                0.00   4323.18     -0.02
                               -0.00     -0.02   4323.90

     hubbard stress (kbar)      0.00      0.00      0.00
                                0.00      0.00      0.00
                                0.00      0.00      0.00

     DFT-D   stress (kbar)      0.15     -0.00      0.00
                               -0.00      0.15      0.00
                                0.00      0.00      0.15

     XDM     stress (kbar)      0.00      0.00      0.00
                                0.00      0.00      0.00
                                0.00      0.00      0.00

     dft-nl  stress (kbar)      0.00      0.00      0.00
                                0.00      0.00      0.00
                                0.00      0.00      0.00

     TS-vdW  stress (kbar)      0.00      0.00      0.00
                                0.00      0.00      0.00
                                0.00      0.00      0.00


                                0.00      0.00      0.00
                                0.00      0.00      0.00


                                0.00      0.00      0.00


     Writing all to output data dir ./calc.save/

     init_run     :     63.56s CPU     65.45s WALL (       1 calls)
     electrons    :   2219.26s CPU   2267.00s WALL (       1 calls)
     forces       :     71.60s CPU     72.27s WALL (       1 calls)
     force_dftd3  :      0.27s CPU      0.27s WALL (       1 calls)
     stress       :    232.32s CPU    233.54s WALL (       1 calls)
     stres_dftd3  :      0.26s CPU      0.27s WALL (       1 calls)

     Called by init_run:
     wfcinit      :     47.99s CPU     49.44s WALL (       1 calls)
     wfcinit:wfcr :     44.10s CPU     45.14s WALL (       1 calls)
     potinit      :      4.48s CPU      4.74s WALL (       1 calls)
     hinit0       :      3.20s CPU      3.28s WALL (       1 calls)

     Called by electrons:
     c_bands      :   1985.86s CPU   2027.64s WALL (      10 calls)
     sum_band     :    192.08s CPU    196.54s WALL (      10 calls)
     v_of_rho     :     36.73s CPU     37.97s WALL (      11 calls)
     v_h          :      2.55s CPU      2.68s WALL (      11 calls)
     v_xc         :     40.39s CPU     41.68s WALL (      13 calls)
     mix_rho      :      6.50s CPU      6.61s WALL (      10 calls)
     energy_dftd3 :      0.22s CPU      0.22s WALL (       1 calls)

     Called by c_bands:
     init_us_2    :      9.15s CPU      9.56s WALL (      21 calls)
     init_us_2:cp :      9.15s CPU      9.56s WALL (      21 calls)
     cegterg      :   1954.04s CPU   1995.73s WALL (      10 calls)

     Called by sum_band:
     sum_band:wei :      0.00s CPU      0.00s WALL (      10 calls)
     sum_band:loo :    187.94s CPU    192.15s WALL (      10 calls)
     sum_band:buf :      0.00s CPU      0.00s WALL (      10 calls)
     sum_band:ini :      4.37s CPU      4.39s WALL (      10 calls)

     Called by *egterg:
     cdiaghg      :      2.57s CPU      2.64s WALL (      96 calls)
     cegterg:over :    137.32s CPU    137.70s WALL (      86 calls)
     cegterg:upda :     96.58s CPU     97.96s WALL (      86 calls)
     cegterg:last :    129.83s CPU    130.19s WALL (      33 calls)
     cdiaghg:chol :      0.14s CPU      0.15s WALL (      96 calls)
     cdiaghg:inve :      0.04s CPU      0.04s WALL (      96 calls)
     cdiaghg:para :      0.42s CPU      0.47s WALL (     192 calls)
     h_psi        :   1596.53s CPU   1635.74s WALL (      97 calls)
     g_psi        :      6.92s CPU      6.94s WALL (      86 calls)

     Called by h_psi:
     h_psi:calbec :    155.86s CPU    156.30s WALL (      97 calls)
     vloc_psi     :   1281.05s CPU   1317.14s WALL (      97 calls)
     add_vuspsi   :    154.08s CPU    154.50s WALL (      97 calls)

     General routines
     calbec       :    174.07s CPU    174.56s WALL (     102 calls)
     fft          :     32.86s CPU     34.51s WALL (     134 calls)
     ffts         :      1.62s CPU      1.75s WALL (      10 calls)
     fftw         :   1259.75s CPU   1299.41s WALL (   12964 calls)

     Parallel routines

     PWSCF        :  43m 8.95s CPU  44m 5.60s WALL


   This run was terminated on:  23:45: 1  28Nov2022            

=------------------------------------------------------------------------------=
   JOB DONE.
=------------------------------------------------------------------------------=
