
.Version 9.6.2 of ABINIT 
.(MPI version, prepared for a x86_64_linux_gnu10.3 computer) 

.Copyright (C) 1998-2021 ABINIT group . 
 ABINIT comes with ABSOLUTELY NO WARRANTY.
 It is free software, and you are welcome to redistribute it
 under certain conditions (GNU General Public License,
 see ~abinit/COPYING or http://www.gnu.org/copyleft/gpl.txt).

 ABINIT is a project of the Universite Catholique de Louvain,
 Corning Inc. and other collaborators, see ~abinit/doc/developers/contributors.txt .
 Please read https://docs.abinit.org/theory/acknowledgments for suggested
 acknowledgments of the ABINIT effort.
 For more information, see https://www.abinit.org .

.Starting date : Wed 14 Dec 2022.
- ( at 17h46 )
  
- input  file    -> NiC2O4.in
- output file    -> NiC2O4.out
- root for input  files -> abi
- root for output files -> abo


 Symmetries : space group P1 (#  1); Bravais aP (primitive triclinic)
================================================================================
 Values of the parameters that define the memory need of the present run
     intxc =       0    ionmov =       0      iscf =       7    lmnmax =       6
     lnmax =       6     mgfft =     160  mpssoang =       3    mqgrid =    6890
     natom =      14  nloc_mem =       1    nspden =       2   nspinor =       1
    nsppol =       2      nsym =       1    n1xccc =       0    ntypat =       3
    occopt =       3   xclevel =       2
-    mband =          65        mffmem =           1         mkmem =           1
       mpw =      171094          nfft =     3317760          nkpt =           4
================================================================================
P This job should need less than                    1965.565 Mbytes of memory.
  Rough estimation (10% accuracy) of disk space for files :
_ WF disk file :   1357.559 Mbytes ; DEN or POT disk file :     50.627 Mbytes.
================================================================================

--------------------------------------------------------------------------------
------------- Echo of variables that govern the present computation ------------
--------------------------------------------------------------------------------
-
- outvars: echo of selected default values                                      
-   iomode0 =  0 , fftalg0 =312 , wfoptalg0 =  0
-
- outvars: echo of global parameters not present in the input file              
-  max_nthreads =    0
-
 -outvars: echo values of preprocessed input variables --------
            acell      9.8000000000E-01  9.8000000000E-01  9.8000000000E-01 Bohr
              amu      5.86900000E+01  1.20110000E+01  1.59994000E+01
        autoparal           1
           diemac      1.00000000E+00
           diemix      4.00000000E-01
             ecut      2.50000000E+02 Hartree
           ecutsm      5.00000000E-01 Hartree
-          fftalg         312
              ixc     -263267
              kpt      2.50000000E-01  2.50000000E-01  2.50000000E-01
                      -2.50000000E-01  2.50000000E-01  2.50000000E-01
                       2.50000000E-01 -2.50000000E-01  2.50000000E-01
                      -2.50000000E-01 -2.50000000E-01  2.50000000E-01
         kptrlatt        2    0    0      0    2    0      0    0    2
          kptrlen      1.88407026E+01
P           mkmem           1
            natom          14
            nband          65
            ngfft         144     144     160
             nkpt           4
-        np_spkpt           8
           nspden           2
           nsppol           2
            nstep          60
             nsym           1
           ntypat           3
              occ      1.000000  1.000000  1.000000  1.000000  1.000000  1.000000
                       1.000000  1.000000  1.000000  1.000000  1.000000  1.000000
                       1.000000  1.000000  1.000000  1.000000  1.000000  1.000000
                       1.000000  1.000000  1.000000  1.000000  1.000000  1.000000
                       1.000000  1.000000  1.000000  1.000000  1.000000  1.000000
                       1.000000  1.000000  1.000000  1.000000  1.000000  1.000000
                       1.000000  1.000000  1.000000  1.000000  1.000000  1.000000
                       1.000000  1.000000  1.000000  1.000000  1.000000  1.000000
                       1.000000  1.000000  0.000000  0.000000  0.000000  0.000000
                       0.000000  0.000000  0.000000  0.000000  0.000000  0.000000
                       0.000000  0.000000  0.000000  0.000000  0.000000
                       1.000000  1.000000  1.000000  1.000000  1.000000  1.000000
                       1.000000  1.000000  1.000000  1.000000  1.000000  1.000000
                       1.000000  1.000000  1.000000  1.000000  1.000000  1.000000
                       1.000000  1.000000  1.000000  1.000000  1.000000  1.000000
                       1.000000  1.000000  1.000000  1.000000  1.000000  1.000000
                       1.000000  1.000000  1.000000  1.000000  1.000000  1.000000
                       1.000000  1.000000  1.000000  1.000000  1.000000  1.000000
                       1.000000  1.000000  1.000000  1.000000  1.000000  1.000000
                       1.000000  1.000000  0.000000  0.000000  0.000000  0.000000
                       0.000000  0.000000  0.000000  0.000000  0.000000  0.000000
                       0.000000  0.000000  0.000000  0.000000  0.000000
                       1.000000  1.000000  1.000000  1.000000  1.000000  1.000000
                       1.000000  1.000000  1.000000  1.000000  1.000000  1.000000
                       1.000000  1.000000  1.000000  1.000000  1.000000  1.000000
                       1.000000  1.000000  1.000000  1.000000  1.000000  1.000000
                       1.000000  1.000000  1.000000  1.000000  1.000000  1.000000
                       1.000000  1.000000  1.000000  1.000000  1.000000  1.000000
                       1.000000  1.000000  1.000000  1.000000  1.000000  1.000000
                       1.000000  1.000000  1.000000  1.000000  1.000000  1.000000
                       1.000000  1.000000  0.000000  0.000000  0.000000  0.000000
                       0.000000  0.000000  0.000000  0.000000  0.000000  0.000000
                       0.000000  0.000000  0.000000  0.000000  0.000000
                       1.000000  1.000000  1.000000  1.000000  1.000000  1.000000
                       1.000000  1.000000  1.000000  1.000000  1.000000  1.000000
                       1.000000  1.000000  1.000000  1.000000  1.000000  1.000000
                       1.000000  1.000000  1.000000  1.000000  1.000000  1.000000
                       1.000000  1.000000  1.000000  1.000000  1.000000  1.000000
                       1.000000  1.000000  1.000000  1.000000  1.000000  1.000000
                       1.000000  1.000000  1.000000  1.000000  1.000000  1.000000
                       1.000000  1.000000  1.000000  1.000000  1.000000  1.000000
                       1.000000  1.000000  0.000000  0.000000  0.000000  0.000000
                       0.000000  0.000000  0.000000  0.000000  0.000000  0.000000
                       0.000000  0.000000  0.000000  0.000000  0.000000
                       1.000000  1.000000  1.000000  1.000000  1.000000  1.000000
                       1.000000  1.000000  1.000000  1.000000  1.000000  1.000000
                       1.000000  1.000000  1.000000  1.000000  1.000000  1.000000
                       1.000000  1.000000  1.000000  1.000000  1.000000  1.000000
                       1.000000  1.000000  1.000000  1.000000  1.000000  1.000000
                       1.000000  1.000000  1.000000  1.000000  1.000000  1.000000
                       1.000000  1.000000  1.000000  1.000000  1.000000  1.000000
                       1.000000  1.000000  1.000000  1.000000  1.000000  1.000000
                       1.000000  1.000000  0.000000  0.000000  0.000000  0.000000
                       0.000000  0.000000  0.000000  0.000000  0.000000  0.000000
                       0.000000  0.000000  0.000000  0.000000  0.000000
                       1.000000  1.000000  1.000000  1.000000  1.000000  1.000000
                       1.000000  1.000000  1.000000  1.000000  1.000000  1.000000
                       1.000000  1.000000  1.000000  1.000000  1.000000  1.000000
                       1.000000  1.000000  1.000000  1.000000  1.000000  1.000000
                       1.000000  1.000000  1.000000  1.000000  1.000000  1.000000
                       1.000000  1.000000  1.000000  1.000000  1.000000  1.000000
                       1.000000  1.000000  1.000000  1.000000  1.000000  1.000000
                       1.000000  1.000000  1.000000  1.000000  1.000000  1.000000
                       1.000000  1.000000  0.000000  0.000000  0.000000  0.000000
                       0.000000  0.000000  0.000000  0.000000  0.000000  0.000000
                       0.000000  0.000000  0.000000  0.000000  0.000000
                       1.000000  1.000000  1.000000  1.000000  1.000000  1.000000
                       1.000000  1.000000  1.000000  1.000000  1.000000  1.000000
                       1.000000  1.000000  1.000000  1.000000  1.000000  1.000000
                       1.000000  1.000000  1.000000  1.000000  1.000000  1.000000
                       1.000000  1.000000  1.000000  1.000000  1.000000  1.000000
                       1.000000  1.000000  1.000000  1.000000  1.000000  1.000000
                       1.000000  1.000000  1.000000  1.000000  1.000000  1.000000
                       1.000000  1.000000  1.000000  1.000000  1.000000  1.000000
                       1.000000  1.000000  0.000000  0.000000  0.000000  0.000000
                       0.000000  0.000000  0.000000  0.000000  0.000000  0.000000
                       0.000000  0.000000  0.000000  0.000000  0.000000
                       1.000000  1.000000  1.000000  1.000000  1.000000  1.000000
                       1.000000  1.000000  1.000000  1.000000  1.000000  1.000000
                       1.000000  1.000000  1.000000  1.000000  1.000000  1.000000
                       1.000000  1.000000  1.000000  1.000000  1.000000  1.000000
                       1.000000  1.000000  1.000000  1.000000  1.000000  1.000000
                       1.000000  1.000000  1.000000  1.000000  1.000000  1.000000
                       1.000000  1.000000  1.000000  1.000000  1.000000  1.000000
                       1.000000  1.000000  1.000000  1.000000  1.000000  1.000000
                       1.000000  1.000000  0.000000  0.000000  0.000000  0.000000
                       0.000000  0.000000  0.000000  0.000000  0.000000  0.000000
                       0.000000  0.000000  0.000000  0.000000  0.000000
           occopt           3
           prtden           0
           prteig           0
          prtkden           1
            prtwf           0
            rprim      0.0000000000E+00  1.0137047334E+01  0.0000000000E+00
                       9.6126033568E+00  0.0000000000E+00  0.0000000000E+00
                       0.0000000000E+00 -5.7455806104E+00 -9.8776109362E+00
           shiftk      5.00000000E-01  5.00000000E-01  5.00000000E-01
          spgroup           1
           spinat      0.0000000000E+00  0.0000000000E+00  1.0000000000E+00
                       0.0000000000E+00  0.0000000000E+00  1.0000000000E+00
                       0.0000000000E+00  0.0000000000E+00  1.0000000000E+00
                       0.0000000000E+00  0.0000000000E+00  1.0000000000E+00
                       0.0000000000E+00  0.0000000000E+00  1.0000000000E+00
                       0.0000000000E+00  0.0000000000E+00  1.0000000000E+00
                       0.0000000000E+00  0.0000000000E+00  1.0000000000E+00
                       0.0000000000E+00  0.0000000000E+00  1.0000000000E+00
                       0.0000000000E+00  0.0000000000E+00  1.0000000000E+00
                       0.0000000000E+00  0.0000000000E+00  1.0000000000E+00
                       0.0000000000E+00  0.0000000000E+00  1.0000000000E+00
                       0.0000000000E+00  0.0000000000E+00  1.0000000000E+00
                       0.0000000000E+00  0.0000000000E+00  1.0000000000E+00
                       0.0000000000E+00  0.0000000000E+00  1.0000000000E+00
           toldfe      1.00000000E-06 Hartree
           tsmear      1.00000000E-03 Hartree
            typat      1  1  2  2  2  2  3  3  3  3  3  3  3  3
          usekden           1
              wtk        0.25000    0.25000    0.25000    0.25000
           xangst      2.4925175997E+00 -1.4898108515E+00 -2.5612332256E+00
                       0.0000000000E+00  0.0000000000E+00  0.0000000000E+00
                       3.0931495358E+00  1.1671982895E+00 -2.1044577696E+00
                       6.0063193607E-01  2.5999993823E+00 -4.5677545591E-01
                       1.8918856636E+00  1.1101885309E+00 -3.0180086815E+00
                       4.3844032633E+00 -3.2261256200E-01 -4.6656909952E+00
                       1.4583919877E+00  2.1898798330E+00 -3.4758905901E+00
                       3.9509095874E+00 -1.4023038642E+00 -4.2078090865E+00
                       3.5266432117E+00  8.7506987295E-02 -1.6465758610E+00
                       1.0341256120E+00  3.6796906845E+00 -9.1465736458E-01
                       3.5676700514E+00  2.2858818709E+00 -1.8762518892E+00
                       1.0751524517E+00  1.4813158009E+00 -6.8498133631E-01
                       1.4173651480E+00 -8.4950505388E-03 -3.2462145619E+00
                       3.9098827477E+00  7.9607101939E-01 -4.4374851148E+00
            xcart      4.7101756448E+00 -2.8153344991E+00 -4.8400293588E+00
                       0.0000000000E+00  0.0000000000E+00  0.0000000000E+00
                       5.8452055106E+00  2.2056851099E+00 -3.9768488429E+00
                       1.1350298658E+00  4.9132867783E+00 -8.6318051590E-01
                       3.5751457790E+00  2.0979522792E+00 -5.7032098747E+00
                       8.2853214238E+00 -6.0964938921E-01 -8.8168782016E+00
                       2.7559614512E+00  4.1382731484E+00 -6.5684812832E+00
                       7.4661370960E+00 -2.6499702584E+00 -7.9516067930E+00
                       6.6643898384E+00  1.6536424070E-01 -3.1115774343E+00
                       1.9542141936E+00  6.9536076475E+00 -1.7284519245E+00
                       6.7419193296E+00  4.3196907081E+00 -3.5456022270E+00
                       2.0317436847E+00  2.7992811801E+00 -1.2944271318E+00
                       2.6784319601E+00 -1.6053319003E-02 -6.1344564905E+00
                       7.3886076049E+00  1.5043562090E+00 -8.3856315857E+00
             xred     -7.7047265178E-19  5.0000000000E-01  5.0000000000E-01
                       0.0000000000E+00  0.0000000000E+00  0.0000000000E+00
                       4.5488100000E-01  6.2048700000E-01  4.1082900000E-01
                       5.4511900000E-01  1.2048700000E-01  8.9171000000E-02
                       5.4511900000E-01  3.7951300000E-01  5.8917100000E-01
                       4.5488100000E-01  8.7951300000E-01  9.1082900000E-01
                       8.0116400000E-01  2.9255400000E-01  6.7855800000E-01
                       1.9883600000E-01  7.9255400000E-01  8.2144200000E-01
                       1.9883600000E-01  7.0744600000E-01  3.2144200000E-01
                       8.0116400000E-01  2.0744600000E-01  1.7855800000E-01
                       6.4242900000E-01  7.1567600000E-01  3.6627900000E-01
                       3.5757100000E-01  2.1567600000E-01  1.3372100000E-01
                       3.5757100000E-01  2.8432400000E-01  6.3372100000E-01
                       6.4242900000E-01  7.8432400000E-01  8.6627900000E-01
            znucl       28.00000    6.00000    8.00000

================================================================================

 chkinp: Checking input parameters for consistency.

================================================================================
== DATASET  1 ==================================================================
-   mpi_nproc: 8, omp_nthreads: -1 (-1 if OMP is not activated)


--- !DatasetInfo
iteration_state: {dtset: 1, }
dimensions: {natom: 14, nkpt: 4, mband: 65, nsppol: 2, nspinor: 1, nspden: 2, mpw: 171094, }
cutoff_energies: {ecut: 250.0, pawecutdg:  -1.0, }
electrons: {nelect:   1.00000000E+02, charge:   0.00000000E+00, occopt:   3.00000000E+00, tsmear:   1.00000000E-03, }
meta: {optdriver: 0, ionmov: 0, optcell: 0, iscf: 7, paral_kgb: 0, }
...

 Real(R)+Recip(G) space primitive vectors, cartesian coordinates (Bohr,Bohr^-1):
 R(1)=  0.0000000  9.9343064  0.0000000  G(1)=  0.0000000  0.1006613 -0.0585524
 R(2)=  9.4203513  0.0000000  0.0000000  G(2)=  0.1061532  0.0000000  0.0000000
 R(3)=  0.0000000 -5.6306690 -9.6800587  G(3)=  0.0000000  0.0000000 -0.1033052
 Unit cell volume ucvol=  9.0590497E+02 bohr^3
 Angles (23,13,12)=  9.00000000E+01  1.20185586E+02  9.00000000E+01 degrees

 getcut: wavevector=  0.0000  0.0000  0.0000  ngfft= 144 144 160
         ecut(hartree)=    250.000   => boxcut(ratio)=   2.00737

--- Pseudopotential description ------------------------------------------------
- pspini: atom type   1  psp file is ../Ni.pot
- pspatm: opening atomic psp file    ../Ni.pot
- Ni    ONCVPSP-4.0.1  r_core=   2.18101   2.18101   2.24723
- 28.00000  18.00000    200312                znucl, zion, pspdat
    8   11    2    4       600   0.00000      pspcod,pspxc,lmax,lloc,mmax,r2well
    5.99000000000000    0.00000000000000    0.00000000000000   rchrg,fchrg,qchrg
     nproj     2     2     2
     extension_switch     1
  pspatm : epsatm=   38.47316822
         --- l  ekb(1:nproj) -->
             0   -3.440917   -0.196078
             1   -5.406223   -1.725842
             2   -7.274254   -2.503385
 pspatm: atomic psp has been read  and splines computed

- pspini: atom type   2  psp file is ../C.pot
- pspatm: opening atomic psp file    ../C.pot
- C     ONCVPSP-4.0.1  r_core=   1.42727   1.38521
-  6.00000   4.00000    200312                znucl, zion, pspdat
    8   11    1    4       600   0.00000      pspcod,pspxc,lmax,lloc,mmax,r2well
    5.99000000000000    0.00000000000000    0.00000000000000   rchrg,fchrg,qchrg
     nproj     2     2
     extension_switch     1
  pspatm : epsatm=    2.26998732
         --- l  ekb(1:nproj) -->
             0    7.571912    0.889574
             1   -3.169338   -0.856835
 pspatm: atomic psp has been read  and splines computed

- pspini: atom type   3  psp file is ../O.pot
- pspatm: opening atomic psp file    ../O.pot
- O     ONCVPSP-4.0.1  r_core=   1.28926   1.47061
-  8.00000   6.00000    200312                znucl, zion, pspdat
    8   11    1    4       600   0.00000      pspcod,pspxc,lmax,lloc,mmax,r2well
    5.99000000000000    0.00000000000000    0.00000000000000   rchrg,fchrg,qchrg
     nproj     2     2
     extension_switch     1
  pspatm : epsatm=    3.44365635
         --- l  ekb(1:nproj) -->
             0    9.802940    1.339963
             1   -3.661294   -1.085684
 pspatm: atomic psp has been read  and splines computed

   1.13575537E+04                                ecore*ucvol(ha*bohr**3)
--------------------------------------------------------------------------------

_setup2: Arith. and geom. avg. npw (full set) are  171054.500  171054.495

================================================================================

--- !BeginCycle
iteration_state: {dtset: 1, }
solver: {iscf: 7, nstep: 60, nline: 4, wfoptalg: 0, }
tolerances: {toldfe: 1.00E-06, }
...

     iter   Etot(hartree)     deltaE(h) residm    vres2    magn
 ETOT  1  -456.68022081113    -4.57E+02 3.51E-01 1.82E+05 1.490
 ETOT  2  -457.47681301007    -7.97E-01 1.32E-02 4.84E+05 3.679
 ETOT  3  -458.91869193973    -1.44E+00 1.21E-02 1.47E+05 2.764
 ETOT  4  -458.89653232352     2.22E-02 5.85E-03 1.31E+05 2.782
 ETOT  5  -458.78908387143     1.07E-01 1.35E-03 1.52E+05 2.222
 ETOT  6  -459.04604718256    -2.57E-01 2.60E-03 8.48E+04 3.981
 ETOT  7  -459.06060395537    -1.46E-02 9.80E-04 6.99E+04 3.998
 ETOT  8  -459.09323214646    -3.26E-02 1.36E-03 4.18E+04 4.000
 ETOT  9  -459.12270206240    -2.95E-02 1.07E-03 1.39E+04 4.000
 ETOT 10  -459.13682561526    -1.41E-02 1.23E-03 5.86E+03 4.000
 ETOT 11  -459.13763685264    -8.11E-04 4.67E-04 4.41E+03 4.000
 ETOT 12  -459.13875557036    -1.12E-03 3.28E-04 2.36E+03 4.000
 ETOT 13  -459.13923232332    -4.77E-04 2.50E-04 6.05E+02 4.000
 ETOT 14  -459.13993628679    -7.04E-04 1.78E-04 2.61E+02 4.000
 ETOT 15  -459.13996220939    -2.59E-05 1.18E-04 1.34E+02 4.000
 ETOT 16  -459.13998543997    -2.32E-05 7.07E-05 1.42E+01 4.000
 ETOT 17  -459.13998879403    -3.35E-06 5.39E-05 4.42E+00 4.000
 ETOT 18  -459.13998939143    -5.97E-07 4.84E-05 2.28E+00 4.000
 ETOT 19  -459.13999008871    -6.97E-07 3.11E-05 7.14E-01 4.000

 At SCF step   19, etot is converged : 
  for the second time, diff in etot=  6.973E-07 < toldfe=  1.000E-06

Result for kinetic energy density :

--------------------------------------------------------------------------------
 Total kinetic energy density [Ha/Bohr^3]
      Maximum=    1.9620E+01  at reduced coord.    0.0000    0.5069    0.4875
      Minimum=    1.1884E-03  at reduced coord.    0.0000    0.0000    0.5000
   Integrated=    2.3807E+02
 Spin up density      [Ha/Bohr^3]
      Maximum=    1.0249E+01  at reduced coord.    0.9931    0.4722    0.5000
      Minimum=    5.8915E-04  at reduced coord.    0.0000    0.0000    0.5000
   Integrated=    1.2920E+02
 Spin down density    [Ha/Bohr^3]
      Maximum=    9.8638E+00  at reduced coord.    0.0000    0.5000    0.5000
      Minimum=    5.9929E-04  at reduced coord.    0.0000    0.0000    0.5000
   Integrated=    1.0887E+02
 Magnetization (spin up - spin down) [Ha/Bohr^3]
      Maximum=    3.0144E+00  at reduced coord.    0.0208    0.0208    0.9688
      Minimum=   -2.9325E-01  at reduced coord.    0.0000    0.0000    0.0000
   Integrated=    2.0338E+01
 Relative magnetization (=zeta, between -1 and 1)
      Maximum=    3.2161E-01  at reduced coord.    0.9306    0.4097    0.5813
      Minimum=   -2.0125E-02  at reduced coord.    0.1875    0.3958    0.7813
--------------------------------------------------------------------------------

 Cartesian components of stress tensor (hartree/bohr^3)
  sigma(1 1)=  1.36146452E-02  sigma(3 2)=  6.90658068E-05
  sigma(2 2)=  1.30456040E-02  sigma(3 1)=  9.14490292E-08
  sigma(3 3)=  1.36683144E-02  sigma(2 1)=  4.72685379E-08


--- !ResultsGS
iteration_state: {dtset: 1, }
comment   : Summary of ground state results
lattice_vectors:
- [  0.0000000,   9.9343064,   0.0000000, ]
- [  9.4203513,   0.0000000,   0.0000000, ]
- [  0.0000000,  -5.6306690,  -9.6800587, ]
lattice_lengths: [   9.93431,    9.42035,   11.19857, ]
lattice_angles: [ 90.000, 120.186,  90.000, ] # degrees, (23, 13, 12)
lattice_volume:   9.0590497E+02
convergence: {deltae: -6.973E-07, res2:  7.145E-01, residm:  3.112E-05, diffor: null, }
etotal    :  -4.59139990E+02
entropy   :   0.00000000E+00
fermie    :   1.33429637E-01
cartesian_stress_tensor: # hartree/bohr^3
- [  1.36146452E-02,   4.72685379E-08,   9.14490292E-08, ]
- [  4.72685379E-08,   1.30456040E-02,   6.90658068E-05, ]
- [  9.14490292E-08,   6.90658068E-05,   1.36683144E-02, ]
pressure_GPa:  -3.9550E+02
xred      :
- [ -7.7047E-19,   5.0000E-01,   5.0000E-01, Ni]
- [  0.0000E+00,   0.0000E+00,   0.0000E+00, Ni]
- [  4.5488E-01,   6.2049E-01,   4.1083E-01,  C]
- [  5.4512E-01,   1.2049E-01,   8.9171E-02,  C]
- [  5.4512E-01,   3.7951E-01,   5.8917E-01,  C]
- [  4.5488E-01,   8.7951E-01,   9.1083E-01,  C]
- [  8.0116E-01,   2.9255E-01,   6.7856E-01,  O]
- [  1.9884E-01,   7.9255E-01,   8.2144E-01,  O]
- [  1.9884E-01,   7.0745E-01,   3.2144E-01,  O]
- [  8.0116E-01,   2.0745E-01,   1.7856E-01,  O]
- [  6.4243E-01,   7.1568E-01,   3.6628E-01,  O]
- [  3.5757E-01,   2.1568E-01,   1.3372E-01,  O]
- [  3.5757E-01,   2.8432E-01,   6.3372E-01,  O]
- [  6.4243E-01,   7.8432E-01,   8.6628E-01,  O]
cartesian_forces: # hartree/bohr
- [  1.43099620E-06,  -9.54859681E-06,  -2.65847922E-07, ]
- [  1.69025341E-06,  -5.50465313E-07,   4.26714271E-06, ]
- [ -3.78073232E-03,   3.12104900E-03,  -2.95564762E-03, ]
- [ -3.78835642E-03,  -3.07539058E-03,   2.95539509E-03, ]
- [  3.78124049E-03,  -3.10748632E-03,   2.95486788E-03, ]
- [  3.78712850E-03,   3.07552517E-03,  -2.95551519E-03, ]
- [ -6.09655465E-03,   1.61645674E-02,  -7.76595594E-03, ]
- [ -6.10115793E-03,  -1.61872149E-02,   7.77763002E-03, ]
- [  6.09687957E-03,  -1.61662793E-02,   7.76517119E-03, ]
- [  6.10175963E-03,   1.61893120E-02,  -7.77775521E-03, ]
- [  7.96285364E-03,   1.32156387E-02,   3.93574263E-03, ]
- [  7.98806129E-03,  -1.32125694E-02,  -3.94455258E-03, ]
- [ -7.96711614E-03,  -1.32173433E-02,  -3.93740403E-03, ]
- [ -7.98712692E-03,   1.32102906E-02,   3.94402245E-03, ]
force_length_stats: {min:   4.62260485E-06, max:   1.89688895E-02, mean:   1.16002354E-02, }
...

 Integrated electronic and magnetization densities in atomic spheres:
 ---------------------------------------------------------------------
 Radius=ratsph(iatom), smearing ratsm=  0.0000. Diff(up-dn)=approximate z local magnetic moment.
 Atom    Radius    up_density   dn_density  Total(up+dn)  Diff(up-dn)
    1   2.00000     8.907275     7.194776     16.102051     1.712499
    2   2.00000     8.907273     7.194759     16.102032     1.712514
    3   2.00000     2.907373     2.884996      5.792369     0.022378
    4   2.00000     2.907374     2.884966      5.792340     0.022409
    5   2.00000     2.907366     2.885002      5.792368     0.022363
    6   2.00000     2.907359     2.884984      5.792343     0.022374
    7   2.00000     3.361422     3.268786      6.630208     0.092636
    8   2.00000     3.361395     3.268791      6.630186     0.092605
    9   2.00000     3.361427     3.268800      6.630227     0.092627
   10   2.00000     3.361389     3.268798      6.630187     0.092591
   11   2.00000     3.366545     3.315590      6.682135     0.050954
   12   2.00000     3.366594     3.315630      6.682224     0.050964
   13   2.00000     3.366555     3.315601      6.682156     0.050954
   14   2.00000     3.366596     3.315624      6.682220     0.050971
 ---------------------------------------------------------------------
  Sum:             56.355942    52.267103    108.623044     4.088839
 Total magnetization (from the atomic spheres):             4.088839
 Total magnetization (exact up - dn):                       4.000000
================================================================================

 ----iterations are completed or convergence reached----

 Mean square residual over all n,k,spin=   26.241E-08; max=  31.119E-06
 reduced coordinates (array xred) for   14 atoms
      -0.000000000000      0.500000000000      0.500000000000
       0.000000000000      0.000000000000      0.000000000000
       0.454881000000      0.620487000000      0.410829000000
       0.545119000000      0.120487000000      0.089171000000
       0.545119000000      0.379513000000      0.589171000000
       0.454881000000      0.879513000000      0.910829000000
       0.801164000000      0.292554000000      0.678558000000
       0.198836000000      0.792554000000      0.821442000000
       0.198836000000      0.707446000000      0.321442000000
       0.801164000000      0.207446000000      0.178558000000
       0.642429000000      0.715676000000      0.366279000000
       0.357571000000      0.215676000000      0.133721000000
       0.357571000000      0.284324000000      0.633721000000
       0.642429000000      0.784324000000      0.866279000000
 rms dE/dt=  8.0039E-02; max dE/dt=  1.6081E-01; dE/dt below (all hartree)
    1       0.000092376984     -0.000013239942     -0.000055389073
    2       0.000002986789     -0.000015682236      0.000039156043
    3      -0.031007938712      0.035616067172     -0.011036299290
    4       0.030549390585      0.035687888814      0.011292840966
    5       0.030868239502     -0.035620373164      0.011107016987
    6      -0.030555691076     -0.035675840344     -0.011291346956
    7      -0.160586246705      0.057431926965      0.015843368293
    8       0.160806270824      0.057475291531     -0.015855984548
    9       0.160598290138     -0.057434506749     -0.015858705302
   10      -0.160832067200     -0.057480478683      0.015868479323
   11      -0.131290685999     -0.075012638040      0.112512056380
   12       0.131255231314     -0.075250102943     -0.112578156362
   13       0.131302655994      0.075053273304     -0.112535837853
   14      -0.131237556271      0.075241781941      0.112562092130

 cartesian coordinates (angstrom) at end:
    1      2.49251759968960    -1.48981085148393    -2.56123322555902
    2      0.00000000000000     0.00000000000000     0.00000000000000
    3      3.09314953575721     1.16719828948220    -2.10445776964637
    4      0.60063193606760     2.59999938234169    -0.45677545591265
    5      1.89188566362200     1.11018853085776    -3.01800868147167
    6      4.38440326331160    -0.32261256200173    -4.66569099520539
    7      1.45839198771918     2.18987983304492    -3.47589059013776
    8      3.95090958740879    -1.40230386418890    -4.20780908653931
    9      3.52664321166002     0.08750698729504    -1.64657586098029
   10      1.03412561197042     3.67969068452885    -0.91465736457874
   11      3.56767005135091     2.28588187087876    -1.87625188924907
   12      1.07515245166131     1.48131580094514    -0.68498133630996
   13      1.41736514802829    -0.00849505053880    -3.24621456186898
   14      3.90988274771789     0.79607101939482    -4.43748511480809

 cartesian forces (hartree/bohr) at end:
    1      0.00000143099620    -0.00000954859681    -0.00000026584792
    2      0.00000169025341    -0.00000055046531     0.00000426714271
    3     -0.00378073232432     0.00312104899934    -0.00295564761597
    4     -0.00378835641812    -0.00307539058055     0.00295539509233
    5      0.00378124048817    -0.00310748632068     0.00295486787546
    6      0.00378712850419     0.00307552517327    -0.00295551518598
    7     -0.00609655464585     0.01616456738319    -0.00776595593819
    8     -0.00610115793132    -0.01618721491539     0.00777763002291
    9      0.00609687956722    -0.01616627931319     0.00776517119354
   10      0.00610175963296     0.01618931198890    -0.00777775521105
   11      0.00796285364293     0.01321563873494     0.00393574262686
   12      0.00798806129141    -0.01321256944357    -0.00394455257580
   13     -0.00796711613528    -0.01321734327258    -0.00393740402823
   14     -0.00798712692160     0.01321029062845     0.00394402244933
 frms,max,avg= 7.8417610E-03 1.6189312E-02  -2.553E-08  2.498E-07 -4.724E-08 h/b

 cartesian forces (eV/Angstrom) at end:
    1      0.00007358477700    -0.00049100854842    -0.00001367044863
    2      0.00008691631750    -0.00002830606211     0.00021942528228
    3     -0.19441305649400     0.16049077887008    -0.15198549848236
    4     -0.19480510312706    -0.15814292877376     0.15197251319556
    5      0.19443918732762    -0.15979335795109     0.15194540261641
    6      0.19474196125977     0.15814984980935    -0.15197868865885
    7     -0.31349741825393     0.83121540545319    -0.39934147700153
    8     -0.31373412868999    -0.83237998828546     0.39994178252376
    9      0.31351412638087    -0.83130343642607     0.39930112381286
   10      0.31376506943001     0.83248782413169    -0.39994821995645
   11      0.40946636321725     0.67957541015380     0.20238400606655
   12      0.41076259251006    -0.67941758085916    -0.20283703181763
   13     -0.40968554936839    -0.67966306099596    -0.20246943875307
   14     -0.41071454528671     0.67930039948392     0.20280977162110
 frms,max,avg= 4.0323953E-01 8.3248782E-01  -1.313E-06  1.285E-05 -2.429E-06 e/A
 length scales=  0.980000000000  0.980000000000  0.980000000000 bohr
              =  0.518593664418  0.518593664418  0.518593664418 angstroms
 Fermi (or HOMO) energy (hartree) =   0.13343   Average Vxc (hartree)=  -0.41884
 Magnetization (Bohr magneton)=  4.00000000E+00
 Total spin up =  5.20000000E+01   Total spin down =  4.80000000E+01
 Eigenvalues (hartree) for nkpt=   4  k points, SPIN UP:
 kpt#   1, nband= 65, wtk=  0.25000, kpt=  0.2500  0.2500  0.2500 (reduced coord)
  -3.83840   -3.83839   -2.36420   -2.36419   -2.36300   -2.36299   -2.35731   -2.35731
  -0.78788   -0.77814   -0.74975   -0.74839   -0.69843   -0.69424   -0.67217   -0.67081
  -0.34171   -0.32159   -0.22331   -0.21485   -0.20761   -0.20538   -0.17638   -0.16629
  -0.15599   -0.14618   -0.13174   -0.12044   -0.09506   -0.07533   -0.06750   -0.06566
  -0.04807   -0.04397   -0.03487   -0.02125   -0.01781   -0.00515    0.00012    0.00692
   0.02421    0.02756    0.03018    0.03887    0.04092    0.05019    0.05639    0.06244
   0.06411    0.07530    0.09060    0.09755    0.23900    0.25467    0.37550    0.39376
   0.39844    0.43259    0.47185    0.48052    0.50776    0.53112    0.55658    0.56494
   0.59122
      occupation numbers for kpt#   1
   1.00000    1.00000    1.00000    1.00000    1.00000    1.00000    1.00000    1.00000
   1.00000    1.00000    1.00000    1.00000    1.00000    1.00000    1.00000    1.00000
   1.00000    1.00000    1.00000    1.00000    1.00000    1.00000    1.00000    1.00000
   1.00000    1.00000    1.00000    1.00000    1.00000    1.00000    1.00000    1.00000
   1.00000    1.00000    1.00000    1.00000    1.00000    1.00000    1.00000    1.00000
   1.00000    1.00000    1.00000    1.00000    1.00000    1.00000    1.00000    1.00000
   1.00000    1.00000    1.00000    1.00000    0.00000    0.00000    0.00000    0.00000
   0.00000    0.00000    0.00000    0.00000    0.00000    0.00000    0.00000    0.00000
   0.00000
 prteigrs : prtvol=0 or 1, do not print more k-points.

 Eigenvalues (hartree) for nkpt=   4  k points, SPIN DOWN:
 kpt#   1, nband= 65, wtk=  0.25000, kpt=  0.2500  0.2500  0.2500 (reduced coord)
  -3.75782   -3.75780   -2.24880   -2.24880   -2.24747   -2.24745   -2.24546   -2.24545
  -0.78419   -0.77427   -0.74538   -0.74399   -0.69370   -0.68915   -0.66673   -0.66551
  -0.33897   -0.31868   -0.21664   -0.20722   -0.20021   -0.19784   -0.17053   -0.15877
  -0.15188   -0.13620   -0.12459   -0.11220   -0.09222   -0.06587   -0.04651   -0.03732
  -0.02253   -0.01793   -0.01256   -0.00428    0.01270    0.01425    0.02125    0.02873
   0.03469    0.04844    0.07025    0.07679    0.07995    0.08255    0.08554    0.08950
   0.20863    0.21701    0.22891    0.23745    0.24566    0.25814    0.37640    0.39680
   0.40819    0.44271    0.47756    0.48753    0.51413    0.53715    0.56080    0.56930
   0.59488
      occupation numbers for kpt#   1
   1.00000    1.00000    1.00000    1.00000    1.00000    1.00000    1.00000    1.00000
   1.00000    1.00000    1.00000    1.00000    1.00000    1.00000    1.00000    1.00000
   1.00000    1.00000    1.00000    1.00000    1.00000    1.00000    1.00000    1.00000
   1.00000    1.00000    1.00000    1.00000    1.00000    1.00000    1.00000    1.00000
   1.00000    1.00000    1.00000    1.00000    1.00000    1.00000    1.00000    1.00000
   1.00000    1.00000    1.00000    1.00000    1.00000    1.00000    1.00000    1.00000
   0.00000    0.00000    0.00000    0.00000    0.00000    0.00000    0.00000    0.00000
   0.00000    0.00000    0.00000    0.00000    0.00000    0.00000    0.00000    0.00000
   0.00000
 prteigrs : prtvol=0 or 1, do not print more k-points.


--- !EnergyTerms
iteration_state     : {dtset: 1, }
comment             : Components of total free energy in Hartree
kinetic             :  2.38069924295906E+02
hartree             :  1.65683229769218E+02
xc                  : -6.56744582381313E+01
Ewald energy        : -2.71499381175141E+02
psp_core            :  1.25372462815725E+01
local_psp           : -4.27744052031585E+02
non_local_psp       : -1.10512498990549E+02
internal            : -4.59139990088709E+02
'-kT*entropy'       :  4.26290451696855E-15
total_energy        : -4.59139990088709E+02
total_energy_eV     : -1.24938345157804E+04
band_energy         : -5.86104506597441E+01
...


 Cartesian components of stress tensor (hartree/bohr^3)
  sigma(1 1)=  1.36146452E-02  sigma(3 2)=  6.90658068E-05
  sigma(2 2)=  1.30456040E-02  sigma(3 1)=  9.14490292E-08
  sigma(3 3)=  1.36683144E-02  sigma(2 1)=  4.72685379E-08

-Cartesian components of stress tensor (GPa)         [Pressure= -3.9550E+02 GPa]
- sigma(1 1)=  4.00556623E+02  sigma(3 2)=  2.03198585E+00
- sigma(2 2)=  3.83814856E+02  sigma(3 1)=  2.69052288E-03
- sigma(3 3)=  4.02135627E+02  sigma(2 1)=  1.39068817E-03

== END DATASET(S) ==============================================================
================================================================================
  
 -outvars: echo values of variables after computation  --------
            acell      9.8000000000E-01  9.8000000000E-01  9.8000000000E-01 Bohr
              amu      5.86900000E+01  1.20110000E+01  1.59994000E+01
        autoparal           1
           diemac      1.00000000E+00
           diemix      4.00000000E-01
             ecut      2.50000000E+02 Hartree
           ecutsm      5.00000000E-01 Hartree
           etotal     -4.5913999009E+02
            fcart      1.4309961996E-06 -9.5485968073E-06 -2.6584792180E-07
                       1.6902534070E-06 -5.5046531308E-07  4.2671427139E-06
                      -3.7807323243E-03  3.1210489993E-03 -2.9556476160E-03
                      -3.7883564181E-03 -3.0753905805E-03  2.9553950923E-03
                       3.7812404882E-03 -3.1074863207E-03  2.9548678755E-03
                       3.7871285042E-03  3.0755251733E-03 -2.9555151860E-03
                      -6.0965546459E-03  1.6164567383E-02 -7.7659559382E-03
                      -6.1011579313E-03 -1.6187214915E-02  7.7776300229E-03
                       6.0968795672E-03 -1.6166279313E-02  7.7651711935E-03
                       6.1017596330E-03  1.6189311989E-02 -7.7777552111E-03
                       7.9628536429E-03  1.3215638735E-02  3.9357426269E-03
                       7.9880612914E-03 -1.3212569444E-02 -3.9445525758E-03
                      -7.9671161353E-03 -1.3217343273E-02 -3.9374040282E-03
                      -7.9871269216E-03  1.3210290628E-02  3.9440224493E-03
-          fftalg         312
              ixc     -263267
              kpt      2.50000000E-01  2.50000000E-01  2.50000000E-01
                      -2.50000000E-01  2.50000000E-01  2.50000000E-01
                       2.50000000E-01 -2.50000000E-01  2.50000000E-01
                      -2.50000000E-01 -2.50000000E-01  2.50000000E-01
         kptrlatt        2    0    0      0    2    0      0    0    2
          kptrlen      1.88407026E+01
P           mkmem           1
            natom          14
            nband          65
            ngfft         144     144     160
             nkpt           4
-        np_spkpt           8
           nspden           2
           nsppol           2
            nstep          60
             nsym           1
           ntypat           3
              occ      1.000000  1.000000  1.000000  1.000000  1.000000  1.000000
                       1.000000  1.000000  1.000000  1.000000  1.000000  1.000000
                       1.000000  1.000000  1.000000  1.000000  1.000000  1.000000
                       1.000000  1.000000  1.000000  1.000000  1.000000  1.000000
                       1.000000  1.000000  1.000000  1.000000  1.000000  1.000000
                       1.000000  1.000000  1.000000  1.000000  1.000000  1.000000
                       1.000000  1.000000  1.000000  1.000000  1.000000  1.000000
                       1.000000  1.000000  1.000000  1.000000  1.000000  1.000000
                       1.000000  1.000000  1.000000  1.000000  0.000000  0.000000
                       0.000000  0.000000  0.000000  0.000000  0.000000  0.000000
                       0.000000  0.000000  0.000000  0.000000  0.000000
                       1.000000  1.000000  1.000000  1.000000  1.000000  1.000000
                       1.000000  1.000000  1.000000  1.000000  1.000000  1.000000
                       1.000000  1.000000  1.000000  1.000000  1.000000  1.000000
                       1.000000  1.000000  1.000000  1.000000  1.000000  1.000000
                       1.000000  1.000000  1.000000  1.000000  1.000000  1.000000
                       1.000000  1.000000  1.000000  1.000000  1.000000  1.000000
                       1.000000  1.000000  1.000000  1.000000  1.000000  1.000000
                       1.000000  1.000000  1.000000  1.000000  1.000000  1.000000
                       1.000000  1.000000  1.000000  1.000000  0.000000  0.000000
                       0.000000  0.000000  0.000000  0.000000  0.000000  0.000000
                       0.000000  0.000000  0.000000  0.000000  0.000000
                       1.000000  1.000000  1.000000  1.000000  1.000000  1.000000
                       1.000000  1.000000  1.000000  1.000000  1.000000  1.000000
                       1.000000  1.000000  1.000000  1.000000  1.000000  1.000000
                       1.000000  1.000000  1.000000  1.000000  1.000000  1.000000
                       1.000000  1.000000  1.000000  1.000000  1.000000  1.000000
                       1.000000  1.000000  1.000000  1.000000  1.000000  1.000000
                       1.000000  1.000000  1.000000  1.000000  1.000000  1.000000
                       1.000000  1.000000  1.000000  1.000000  1.000000  1.000000
                       1.000000  1.000000  1.000000  1.000000  0.000000  0.000000
                       0.000000  0.000000  0.000000  0.000000  0.000000  0.000000
                       0.000000  0.000000  0.000000  0.000000  0.000000
                       1.000000  1.000000  1.000000  1.000000  1.000000  1.000000
                       1.000000  1.000000  1.000000  1.000000  1.000000  1.000000
                       1.000000  1.000000  1.000000  1.000000  1.000000  1.000000
                       1.000000  1.000000  1.000000  1.000000  1.000000  1.000000
                       1.000000  1.000000  1.000000  1.000000  1.000000  1.000000
                       1.000000  1.000000  1.000000  1.000000  1.000000  1.000000
                       1.000000  1.000000  1.000000  1.000000  1.000000  1.000000
                       1.000000  1.000000  1.000000  1.000000  1.000000  1.000000
                       1.000000  1.000000  1.000000  1.000000  0.000000  0.000000
                       0.000000  0.000000  0.000000  0.000000  0.000000  0.000000
                       0.000000  0.000000  0.000000  0.000000  0.000000
                       1.000000  1.000000  1.000000  1.000000  1.000000  1.000000
                       1.000000  1.000000  1.000000  1.000000  1.000000  1.000000
                       1.000000  1.000000  1.000000  1.000000  1.000000  1.000000
                       1.000000  1.000000  1.000000  1.000000  1.000000  1.000000
                       1.000000  1.000000  1.000000  1.000000  1.000000  1.000000
                       1.000000  1.000000  1.000000  1.000000  1.000000  1.000000
                       1.000000  1.000000  1.000000  1.000000  1.000000  1.000000
                       1.000000  1.000000  1.000000  1.000000  1.000000  1.000000
                       0.000000  0.000000  0.000000  0.000000  0.000000  0.000000
                       0.000000  0.000000  0.000000  0.000000  0.000000  0.000000
                       0.000000  0.000000  0.000000  0.000000  0.000000
                       1.000000  1.000000  1.000000  1.000000  1.000000  1.000000
                       1.000000  1.000000  1.000000  1.000000  1.000000  1.000000
                       1.000000  1.000000  1.000000  1.000000  1.000000  1.000000
                       1.000000  1.000000  1.000000  1.000000  1.000000  1.000000
                       1.000000  1.000000  1.000000  1.000000  1.000000  1.000000
                       1.000000  1.000000  1.000000  1.000000  1.000000  1.000000
                       1.000000  1.000000  1.000000  1.000000  1.000000  1.000000
                       1.000000  1.000000  1.000000  1.000000  1.000000  1.000000
                       0.000000  0.000000  0.000000  0.000000  0.000000  0.000000
                       0.000000  0.000000  0.000000  0.000000  0.000000  0.000000
                       0.000000  0.000000  0.000000  0.000000  0.000000
                       1.000000  1.000000  1.000000  1.000000  1.000000  1.000000
                       1.000000  1.000000  1.000000  1.000000  1.000000  1.000000
                       1.000000  1.000000  1.000000  1.000000  1.000000  1.000000
                       1.000000  1.000000  1.000000  1.000000  1.000000  1.000000
                       1.000000  1.000000  1.000000  1.000000  1.000000  1.000000
                       1.000000  1.000000  1.000000  1.000000  1.000000  1.000000
                       1.000000  1.000000  1.000000  1.000000  1.000000  1.000000
                       1.000000  1.000000  1.000000  1.000000  1.000000  1.000000
                       0.000000  0.000000  0.000000  0.000000  0.000000  0.000000
                       0.000000  0.000000  0.000000  0.000000  0.000000  0.000000
                       0.000000  0.000000  0.000000  0.000000  0.000000
                       1.000000  1.000000  1.000000  1.000000  1.000000  1.000000
                       1.000000  1.000000  1.000000  1.000000  1.000000  1.000000
                       1.000000  1.000000  1.000000  1.000000  1.000000  1.000000
                       1.000000  1.000000  1.000000  1.000000  1.000000  1.000000
                       1.000000  1.000000  1.000000  1.000000  1.000000  1.000000
                       1.000000  1.000000  1.000000  1.000000  1.000000  1.000000
                       1.000000  1.000000  1.000000  1.000000  1.000000  1.000000
                       1.000000  1.000000  1.000000  1.000000  1.000000  1.000000
                       0.000000  0.000000  0.000000  0.000000  0.000000  0.000000
                       0.000000  0.000000  0.000000  0.000000  0.000000  0.000000
                       0.000000  0.000000  0.000000  0.000000  0.000000
           occopt           3
           prtden           0
           prteig           0
          prtkden           1
            prtwf           0
            rprim      0.0000000000E+00  1.0137047334E+01  0.0000000000E+00
                       9.6126033568E+00  0.0000000000E+00  0.0000000000E+00
                       0.0000000000E+00 -5.7455806104E+00 -9.8776109362E+00
           shiftk      5.00000000E-01  5.00000000E-01  5.00000000E-01
          spgroup           1
           spinat      0.0000000000E+00  0.0000000000E+00  1.0000000000E+00
                       0.0000000000E+00  0.0000000000E+00  1.0000000000E+00
                       0.0000000000E+00  0.0000000000E+00  1.0000000000E+00
                       0.0000000000E+00  0.0000000000E+00  1.0000000000E+00
                       0.0000000000E+00  0.0000000000E+00  1.0000000000E+00
                       0.0000000000E+00  0.0000000000E+00  1.0000000000E+00
                       0.0000000000E+00  0.0000000000E+00  1.0000000000E+00
                       0.0000000000E+00  0.0000000000E+00  1.0000000000E+00
                       0.0000000000E+00  0.0000000000E+00  1.0000000000E+00
                       0.0000000000E+00  0.0000000000E+00  1.0000000000E+00
                       0.0000000000E+00  0.0000000000E+00  1.0000000000E+00
                       0.0000000000E+00  0.0000000000E+00  1.0000000000E+00
                       0.0000000000E+00  0.0000000000E+00  1.0000000000E+00
                       0.0000000000E+00  0.0000000000E+00  1.0000000000E+00
           strten      1.3614645199E-02  1.3045603982E-02  1.3668314434E-02
                       6.9065806797E-05  9.1449029184E-08  4.7268537929E-08
           toldfe      1.00000000E-06 Hartree
           tsmear      1.00000000E-03 Hartree
            typat      1  1  2  2  2  2  3  3  3  3  3  3  3  3
          usekden           1
              wtk        0.25000    0.25000    0.25000    0.25000
           xangst      2.4925175997E+00 -1.4898108515E+00 -2.5612332256E+00
                       0.0000000000E+00  0.0000000000E+00  0.0000000000E+00
                       3.0931495358E+00  1.1671982895E+00 -2.1044577696E+00
                       6.0063193607E-01  2.5999993823E+00 -4.5677545591E-01
                       1.8918856636E+00  1.1101885309E+00 -3.0180086815E+00
                       4.3844032633E+00 -3.2261256200E-01 -4.6656909952E+00
                       1.4583919877E+00  2.1898798330E+00 -3.4758905901E+00
                       3.9509095874E+00 -1.4023038642E+00 -4.2078090865E+00
                       3.5266432117E+00  8.7506987295E-02 -1.6465758610E+00
                       1.0341256120E+00  3.6796906845E+00 -9.1465736458E-01
                       3.5676700514E+00  2.2858818709E+00 -1.8762518892E+00
                       1.0751524517E+00  1.4813158009E+00 -6.8498133631E-01
                       1.4173651480E+00 -8.4950505388E-03 -3.2462145619E+00
                       3.9098827477E+00  7.9607101939E-01 -4.4374851148E+00
            xcart      4.7101756448E+00 -2.8153344991E+00 -4.8400293588E+00
                       0.0000000000E+00  0.0000000000E+00  0.0000000000E+00
                       5.8452055106E+00  2.2056851099E+00 -3.9768488429E+00
                       1.1350298658E+00  4.9132867783E+00 -8.6318051590E-01
                       3.5751457790E+00  2.0979522792E+00 -5.7032098747E+00
                       8.2853214238E+00 -6.0964938921E-01 -8.8168782016E+00
                       2.7559614512E+00  4.1382731484E+00 -6.5684812832E+00
                       7.4661370960E+00 -2.6499702584E+00 -7.9516067930E+00
                       6.6643898384E+00  1.6536424070E-01 -3.1115774343E+00
                       1.9542141936E+00  6.9536076475E+00 -1.7284519245E+00
                       6.7419193296E+00  4.3196907081E+00 -3.5456022270E+00
                       2.0317436847E+00  2.7992811801E+00 -1.2944271318E+00
                       2.6784319601E+00 -1.6053319003E-02 -6.1344564905E+00
                       7.3886076049E+00  1.5043562090E+00 -8.3856315857E+00
             xred     -7.7047265178E-19  5.0000000000E-01  5.0000000000E-01
                       0.0000000000E+00  0.0000000000E+00  0.0000000000E+00
                       4.5488100000E-01  6.2048700000E-01  4.1082900000E-01
                       5.4511900000E-01  1.2048700000E-01  8.9171000000E-02
                       5.4511900000E-01  3.7951300000E-01  5.8917100000E-01
                       4.5488100000E-01  8.7951300000E-01  9.1082900000E-01
                       8.0116400000E-01  2.9255400000E-01  6.7855800000E-01
                       1.9883600000E-01  7.9255400000E-01  8.2144200000E-01
                       1.9883600000E-01  7.0744600000E-01  3.2144200000E-01
                       8.0116400000E-01  2.0744600000E-01  1.7855800000E-01
                       6.4242900000E-01  7.1567600000E-01  3.6627900000E-01
                       3.5757100000E-01  2.1567600000E-01  1.3372100000E-01
                       3.5757100000E-01  2.8432400000E-01  6.3372100000E-01
                       6.4242900000E-01  7.8432400000E-01  8.6627900000E-01
            znucl       28.00000    6.00000    8.00000

================================================================================


- Timing analysis has been suppressed with timopt=0



================================================================================

 Suggested references for the acknowledgment of ABINIT usage.

 The users of ABINIT have little formal obligations with respect to the ABINIT group
 (those specified in the GNU General Public License, http://www.gnu.org/copyleft/gpl.txt).
 However, it is common practice in the scientific literature,
 to acknowledge the efforts of people that have made the research possible.
 In this spirit, please find below suggested citations of work written by ABINIT developers,
 corresponding to implementations inside of ABINIT that you have used in the present run.
 Note also that it will be of great value to readers of publications presenting these results,
 to read papers enabling them to understand the theoretical formalism and details
 of the ABINIT implementation.
 For information on why they are suggested, see also https://docs.abinit.org/theory/acknowledgments.
-
- [1] Libxc: A library of exchange and correlation functionals for density functional theory.
- M.A.L. Marques, M.J.T. Oliveira, T. Burnus, Computer Physics Communications 183, 2227 (2012).
- Comment: to be cited when LibXC is used (negative value of ixc)
- Strong suggestion to cite this paper.
- DOI and bibtex: see https://docs.abinit.org/theory/bibliography/#marques2012
-
- [2] The Abinit project: Impact, environment and recent developments.
- Computer Phys. Comm. 248, 107042 (2020).
- X.Gonze, B. Amadon, G. Antonius, F.Arnardi, L.Baguet, J.-M.Beuken,
- J.Bieder, F.Bottin, J.Bouchet, E.Bousquet, N.Brouwer, F.Bruneval,
- G.Brunin, T.Cavignac, J.-B. Charraud, Wei Chen, M.Cote, S.Cottenier,
- J.Denier, G.Geneste, Ph.Ghosez, M.Giantomassi, Y.Gillet, O.Gingras,
- D.R.Hamann, G.Hautier, Xu He, N.Helbig, N.Holzwarth, Y.Jia, F.Jollet,
- W.Lafargue-Dit-Hauret, K.Lejaeghere, M.A.L.Marques, A.Martin, C.Martins,
- H.P.C. Miranda, F.Naccarato, K. Persson, G.Petretto, V.Planes, Y.Pouillon,
- S.Prokhorenko, F.Ricci, G.-M.Rignanese, A.H.Romero, M.M.Schmitt, M.Torrent,
- M.J.van Setten, B.Van Troeye, M.J.Verstraete, G.Zerah and J.W.Zwanzig
- Comment: the fifth generic paper describing the ABINIT project.
- Note that a version of this paper, that is not formatted for Computer Phys. Comm. 
- is available at https://www.abinit.org/sites/default/files/ABINIT20.pdf .
- The licence allows the authors to put it on the Web.
- DOI and bibtex: see https://docs.abinit.org/theory/bibliography/#gonze2020
-
- [3] Optimized norm-conserving Vanderbilt pseudopotentials.
- D.R. Hamann, Phys. Rev. B 88, 085117 (2013).
- Comment: Some pseudopotential generated using the ONCVPSP code were used.
- DOI and bibtex: see https://docs.abinit.org/theory/bibliography/#hamann2013
-
- [4] ABINIT: Overview, and focus on selected capabilities
- J. Chem. Phys. 152, 124102 (2020).
- A. Romero, D.C. Allan, B. Amadon, G. Antonius, T. Applencourt, L.Baguet,
- J.Bieder, F.Bottin, J.Bouchet, E.Bousquet, F.Bruneval,
- G.Brunin, D.Caliste, M.Cote,
- J.Denier, C. Dreyer, Ph.Ghosez, M.Giantomassi, Y.Gillet, O.Gingras,
- D.R.Hamann, G.Hautier, F.Jollet, G. Jomard,
- A.Martin, 
- H.P.C. Miranda, F.Naccarato, G.Petretto, N.A. Pike, V.Planes,
- S.Prokhorenko, T. Rangel, F.Ricci, G.-M.Rignanese, M.Royo, M.Stengel, M.Torrent,
- M.J.van Setten, B.Van Troeye, M.J.Verstraete, J.Wiktor, J.W.Zwanziger, and X.Gonze.
- Comment: a global overview of ABINIT, with focus on selected capabilities .
- Note that a version of this paper, that is not formatted for J. Chem. Phys 
- is available at https://www.abinit.org/sites/default/files/ABINIT20_JPC.pdf .
- The licence allows the authors to put it on the Web.
- DOI and bibtex: see https://docs.abinit.org/theory/bibliography/#romero2020
-
- [5] Recent developments in the ABINIT software package.
- Computer Phys. Comm. 205, 106 (2016).
- X.Gonze, F.Jollet, F.Abreu Araujo, D.Adams, B.Amadon, T.Applencourt,
- C.Audouze, J.-M.Beuken, J.Bieder, A.Bokhanchuk, E.Bousquet, F.Bruneval
- D.Caliste, M.Cote, F.Dahm, F.Da Pieve, M.Delaveau, M.Di Gennaro,
- B.Dorado, C.Espejo, G.Geneste, L.Genovese, A.Gerossier, M.Giantomassi,
- Y.Gillet, D.R.Hamann, L.He, G.Jomard, J.Laflamme Janssen, S.Le Roux,
- A.Levitt, A.Lherbier, F.Liu, I.Lukacevic, A.Martin, C.Martins,
- M.J.T.Oliveira, S.Ponce, Y.Pouillon, T.Rangel, G.-M.Rignanese,
- A.H.Romero, B.Rousseau, O.Rubel, A.A.Shukri, M.Stankovski, M.Torrent,
- M.J.Van Setten, B.Van Troeye, M.J.Verstraete, D.Waroquier, J.Wiktor,
- B.Xu, A.Zhou, J.W.Zwanziger.
- Comment: the fourth generic paper describing the ABINIT project.
- Note that a version of this paper, that is not formatted for Computer Phys. Comm. 
- is available at https://www.abinit.org/sites/default/files/ABINIT16.pdf .
- The licence allows the authors to put it on the Web.
- DOI and bibtex: see https://docs.abinit.org/theory/bibliography/#gonze2016
-
- Proc.   0 individual time (sec): cpu=       4289.7  wall=       4305.8

================================================================================

 Calculation completed.
.Delivered   0 WARNINGs and   0 COMMENTs to log file.
+Overall time at end (sec) : cpu=      34342.2  wall=      34448.6
