
     Program PWSCF v.7.0 starts on  3Dec2022 at 17:25:18 

     This program is part of the open-source Quantum ESPRESSO suite
     for quantum simulation of materials; please cite
         "P. Giannozzi et al., J. Phys.:Condens. Matter 21 395502 (2009);
         "P. Giannozzi et al., J. Phys.:Condens. Matter 29 465901 (2017);
         "P. Giannozzi et al., J. Chem. Phys. 152 154105 (2020);
          URL http://www.quantum-espresso.org", 
     in publications or presentations arising from this work. More details at
     http://www.quantum-espresso.org/quote

     Parallel version (MPI), running on    24 processors

     MPI processes distributed on     1 nodes
     R & G space division:  proc/nbgrp/npool/nimage =      24
     358915 MiB available memory on the printing compute node when the environment starts

     Reading input from pw.inp
Warning: card &CELL ignored
Warning: card / ignored

     Current dimensions of program PWSCF are:
     Max number of different atomic species (ntypx) = 10
     Max number of k-points (npk) =  40000
     Max angular momentum in pseudopotentials (lmaxx) =  4
     Message from routine cell_base_init:
     DEPRECATED: use true lattice parameter, not A to a.u. conversion factor

     IMPORTANT: XC functional enforced from input :
     Exchange-correlation= VDW-DF
                           (   1   4   4   0   1   0   0)
     Any further DFT definition will be discarded
     Please, verify this is what you really want


     Subspace diagonalization in iterative solution of the eigenvalue problem:
     one sub-group per band group will be used
     scalapack distributed-memory algorithm (size of sub-group:  4*  4 procs)


     Parallelization info
     --------------------
     sticks:   dense  smooth     PW     G-vecs:    dense   smooth      PW
     Min        1279    1279    348                35719    35719    5064
     Max        1281    1281    350                35720    35720    5065
     Sum       30727   30727   8371               857267   857267  121539

     Using Slab Decomposition



     bravais-lattice index     =            0
     lattice parameter (alat)  =       1.0000  a.u.
     unit-cell volume          =    2244.8709 (a.u.)^3
     number of atoms/cell      =           24
     number of atomic types    =            1
     number of electrons       =        96.00
     number of Kohn-Sham states=           62
     kinetic-energy cutoff     =     200.0000  Ry
     charge density cutoff     =     800.0000  Ry
     scf convergence threshold =      1.0E-06
     mixing beta               =       0.7000
     number of iterations used =            8  plain     mixing
     Exchange-correlation= VDW-DF
                           (   1   4   4   0   1   0   0)

     celldm(1)=   1.000000  celldm(2)=   0.000000  celldm(3)=   0.000000
     celldm(4)=   0.000000  celldm(5)=   0.000000  celldm(6)=   0.000000

     crystal axes: (cart. coord. in units of alat)
               a(1) = (  30.187375   0.000000   0.000000 )  
               a(2) = (   0.000000  16.000000   0.000000 )  
               a(3) = (   0.000000   0.000000   4.647785 )  

     reciprocal axes: (cart. coord. in units 2 pi/alat)
               b(1) = (  0.033126  0.000000  0.000000 )  
               b(2) = (  0.000000  0.062500  0.000000 )  
               b(3) = (  0.000000  0.000000  0.215156 )  


     PseudoPot. # 1 for C  read from file:
     .././06_C_4_1.2_1.2_pbe_n_v1.0.upf
     MD5 check sum: 7e0e17a2517474b8bea671dc4b65026c
     Pseudo is Norm-conserving + core correction, Zval =  4.0
     Generated using ONCVPSP code by D. R. Hamann
     Using radial grid of 1246 points,  4 beta functions with: 
                l(1) =   0
                l(2) =   0
                l(3) =   1
                l(4) =   1

     atomic species   valence    mass     pseudopotential
        C              4.00    12.00000     C ( 1.00)

     No symmetry found



   Cartesian axes

     site n.     atom                  positions (alat units)
         1           C   tau(   1) = (  11.8436874   8.0000000   0.0000000  )
         2           C   tau(   2) = (  10.9444353  10.4706746   0.0000000  )
         3           C   tau(   3) = (   6.0781563  11.3287309   0.0000000  )
         4           C   tau(   4) = (   4.3881153   9.3146185   0.0000000  )
         5           C   tau(   5) = (   6.0781563   4.6712691   0.0000000  )
         6           C   tau(   6) = (   8.6674493   4.2147069   0.0000000  )
         7           C   tau(   7) = (   9.9218437  11.3287309   2.3238926  )
         8           C   tau(   8) = (   7.3325507  11.7852931   2.3238926  )
         9           C   tau(   9) = (   4.1563126   8.0000000   2.3238926  )
        10           C   tau(  10) = (   5.0555647   5.5293254   2.3238926  )
        11           C   tau(  11) = (   9.9218437   4.6712691   2.3238926  )
        12           C   tau(  12) = (  11.6118847   6.6853815   2.3238926  )
        13           C   tau(  13) = (  26.0310621   8.0000000   0.0000000  )
        14           C   tau(  14) = (  25.1318101  10.4706746   0.0000000  )
        15           C   tau(  15) = (  20.2655311  11.3287309   0.0000000  )
        16           C   tau(  16) = (  18.5754901   9.3146185   0.0000000  )
        17           C   tau(  17) = (  20.2655311   4.6712691   0.0000000  )
        18           C   tau(  18) = (  22.8548240   4.2147069   0.0000000  )
        19           C   tau(  19) = (  24.1092184  11.3287309   2.3238926  )
        20           C   tau(  20) = (  21.5199254  11.7852931   2.3238926  )
        21           C   tau(  21) = (  18.3436874   8.0000000   2.3238926  )
        22           C   tau(  22) = (  19.2429394   5.5293254   2.3238926  )
        23           C   tau(  23) = (  24.1092184   4.6712691   2.3238926  )
        24           C   tau(  24) = (  25.7992594   6.6853815   2.3238926  )

     number of k points=     5  Fermi-Dirac smearing, width (Ry)=  0.0020
                       cart. coord. in units 2pi/alat
        k(    1) = (   0.0000000   0.0000000   0.0107578), wk =   0.4000000
        k(    2) = (   0.0000000   0.0000000   0.0322734), wk =   0.4000000
        k(    3) = (   0.0000000   0.0000000   0.0537891), wk =   0.4000000
        k(    4) = (   0.0000000   0.0000000   0.0753047), wk =   0.4000000
        k(    5) = (   0.0000000   0.0000000   0.0968203), wk =   0.4000000

     Dense  grid:   857267 G-vectors     FFT dimensions: ( 288, 150,  45)

     Estimated max dynamical RAM per process >      77.01 MB

     Estimated total dynamical RAM >       1.80 GB

     Initial potential from superposition of free atoms

     starting charge      95.9989, renormalised to      96.0000


     %%%%%%%%%%%%%%%%%%%%%%%%%%%%%%%%%%%%%%%%%%%%%%%%%%%%%%%%%%%%%%%%%%%%%%%%
     %                                                                      %
     % You are using vdW-DF, which was implemented by the Thonhauser group. %
     % Please cite the following two papers that made this development      %
     % possible and the two reviews that describe the various versions:     %
     %                                                                      %
     %   T. Thonhauser et al., PRL 115, 136402 (2015).                      %
     %   T. Thonhauser et al., PRB 76, 125112 (2007).                       %
     %   K. Berland et al., Rep. Prog. Phys. 78, 066501 (2015).             %
     %   D.C. Langreth et al., J. Phys.: Condens. Matter 21, 084203 (2009). %
     %                                                                      %
     %                                                                      %
     % If you are calculating the stress with vdW-DF, please also cite:     %
     %                                                                      %
     %   R. Sabatini et al., J. Phys.: Condens. Matter 24, 424209 (2012).   %
     %                                                                      %
     %%%%%%%%%%%%%%%%%%%%%%%%%%%%%%%%%%%%%%%%%%%%%%%%%%%%%%%%%%%%%%%%%%%%%%%%


     Starting wfcs are random

     total cpu time spent up to now is        9.6 secs

     per-process dynamical memory:   104.3 Mb

     Self-consistent Calculation

     iteration #  1     ecut=   200.00 Ry     beta= 0.70
     Davidson diagonalization with overlap
     ethr =  1.00E-02,  avg # of iterations = 13.6

     total cpu time spent up to now is       28.0 secs

     total energy              =    -289.77092385 Ry
     estimated scf accuracy    <       2.76411344 Ry

     iteration #  2     ecut=   200.00 Ry     beta= 0.70
     Davidson diagonalization with overlap
     ethr =  2.88E-03,  avg # of iterations =  4.0

     total cpu time spent up to now is       34.1 secs

     total energy              =    -290.19709068 Ry
     estimated scf accuracy    <       0.56011640 Ry

     iteration #  3     ecut=   200.00 Ry     beta= 0.70
     Davidson diagonalization with overlap
     ethr =  5.83E-04,  avg # of iterations =  4.4

     total cpu time spent up to now is       40.1 secs

     total energy              =    -290.39063226 Ry
     estimated scf accuracy    <       0.16725561 Ry

     iteration #  4     ecut=   200.00 Ry     beta= 0.70
     Davidson diagonalization with overlap
     ethr =  1.74E-04,  avg # of iterations =  4.8

     total cpu time spent up to now is       45.7 secs

     total energy              =    -290.41968483 Ry
     estimated scf accuracy    <       0.01753068 Ry

     iteration #  5     ecut=   200.00 Ry     beta= 0.70
     Davidson diagonalization with overlap
     ethr =  1.83E-05,  avg # of iterations = 10.2

     total cpu time spent up to now is       52.5 secs

     total energy              =    -290.42353704 Ry
     estimated scf accuracy    <       0.02266690 Ry

     iteration #  6     ecut=   200.00 Ry     beta= 0.70
     Davidson diagonalization with overlap
     ethr =  1.83E-05,  avg # of iterations =  6.4

     total cpu time spent up to now is       57.7 secs

     total energy              =    -290.42596032 Ry
     estimated scf accuracy    <       0.00313008 Ry

     iteration #  7     ecut=   200.00 Ry     beta= 0.70
     Davidson diagonalization with overlap
     ethr =  3.26E-06,  avg # of iterations =  7.0

     total cpu time spent up to now is       63.3 secs

     total energy              =    -290.42642551 Ry
     estimated scf accuracy    <       0.00036027 Ry

     iteration #  8     ecut=   200.00 Ry     beta= 0.70
     Davidson diagonalization with overlap
     ethr =  3.75E-07,  avg # of iterations =  2.2

     total cpu time spent up to now is       68.2 secs

     total energy              =    -290.42649444 Ry
     estimated scf accuracy    <       0.00006629 Ry

     iteration #  9     ecut=   200.00 Ry     beta= 0.70
     Davidson diagonalization with overlap
     ethr =  6.91E-08,  avg # of iterations =  2.0

     total cpu time spent up to now is       73.2 secs

     total energy              =    -290.42650732 Ry
     estimated scf accuracy    <       0.00000323 Ry

     iteration # 10     ecut=   200.00 Ry     beta= 0.70
     Davidson diagonalization with overlap
     ethr =  3.37E-09,  avg # of iterations =  4.0

     total cpu time spent up to now is       79.6 secs

     total energy              =    -290.42650902 Ry
     estimated scf accuracy    <       0.00000112 Ry

     iteration # 11     ecut=   200.00 Ry     beta= 0.70
     Davidson diagonalization with overlap
     ethr =  1.17E-09,  avg # of iterations =  2.0

     total cpu time spent up to now is       84.5 secs

     End of self-consistent calculation

          k = 0.0000 0.0000 0.0108 (107319 PWs)   bands (ev):

   -17.6869 -17.6793 -16.6695 -16.6591 -16.6539 -16.6468 -14.2011 -14.1859
   -14.1816 -14.1758 -11.3232 -11.3027 -10.3213 -10.3181  -7.0839  -7.0677
    -7.0487  -7.0453  -5.7984  -5.6835  -4.8836  -4.7596  -4.7556  -4.6940
    -4.5038  -4.5019  -3.7202  -3.7182  -3.7100  -3.7081  -2.2979  -2.2392
    -2.2243  -2.2148  -1.7509  -1.7484  -1.7436  -1.7411  -1.0569  -0.8809
    -0.7739  -0.7698  -0.6151  -0.5961  -0.4793  -0.4770   1.8106   1.9789
     3.9961   4.1975   5.3021   5.9407   6.3324   6.4248   6.6342   6.8441
     6.9284   7.1403   7.2681   7.6776   7.8249   7.8994

          k = 0.0000 0.0000 0.0323 (107329 PWs)   bands (ev):

   -17.3270 -17.3195 -16.3181 -16.3080 -16.3027 -16.2957 -13.8685 -13.8537
   -13.8496 -13.8440 -11.0196 -11.0000 -10.0630 -10.0600  -6.9890  -6.9769
    -6.9605  -6.9571  -5.8590  -5.8562  -5.3943  -5.2830  -4.9335  -4.9291
    -4.9222  -4.9215  -4.6747  -4.5868  -4.5845  -4.5381  -3.1676  -3.1271
    -3.1159  -3.1021  -2.0425  -1.9936  -1.9818  -1.9730  -1.6635  -1.6598
    -1.2222  -1.2153  -0.7155  -0.5451  -0.4423  -0.4226   2.1750   2.3401
     3.9038   4.0625   5.7450   6.2231   6.3301   6.4758   6.4864   6.6872
     7.2869   7.3179   7.3788   7.4477   7.4882   7.5420

          k = 0.0000 0.0000 0.0538 (107265 PWs)   bands (ev):

   -16.6114 -16.6042 -15.6200 -15.6104 -15.6050 -15.5983 -13.2125 -13.1986
   -13.1948 -13.1896 -10.4148 -10.3967  -9.7809  -9.7777  -7.6828  -7.6805
    -7.6715  -7.6704  -7.5498  -7.5462  -5.7314  -5.7260  -5.7114  -5.7086
    -5.4940  -5.4935  -5.4854  -5.4841  -4.6363  -4.5395  -3.6399  -3.5629
    -3.5585  -3.5211  -3.3917  -3.3858  -2.2818  -2.2635  -2.0366  -1.9478
    -1.9305  -1.9035  -0.0901   0.0631   0.1575   0.1745   2.8724   3.0370
     3.2694   3.3742   5.5472   5.6283   5.7255   5.8000   6.5588   6.6342
     6.6704   6.7298   6.7992   7.3659   7.4726   7.5092

          k = 0.0000 0.0000 0.0753 (107095 PWs)   bands (ev):

   -15.5502 -15.5434 -14.5872 -14.5785 -14.5728 -14.5665 -12.2783 -12.2658
   -12.2621 -12.2585 -10.7270 -10.7224  -9.5141  -9.4981  -9.4741  -9.4703
    -9.4635  -9.4603  -7.7970  -7.7946  -7.3565  -7.3503  -7.3477  -7.3435
    -5.2893  -5.2831  -5.2700  -5.2676  -5.1990  -5.1907  -4.2563  -4.2391
    -3.4586  -3.4429  -3.4404  -3.4291  -2.8738  -2.7831  -1.5997  -1.4615
    -1.4424  -1.3900   0.6190   0.7196   0.8098   0.8125   1.8923   1.9626
     3.9096   4.0438   4.4604   4.4698   4.5676   4.5696   5.6247   5.6344
     5.6761   5.7250   7.1881   7.2076   8.2123   8.7255

          k = 0.0000 0.0000 0.0968 (106989 PWs)   bands (ev):

   -14.1644 -14.1581 -13.2525 -13.2450 -13.2390 -13.2330 -12.5018 -12.4963
   -11.8417 -11.8405 -11.8319 -11.8272 -10.4810 -10.4741 -10.4694 -10.4659
    -9.1426  -9.1345  -9.1318  -9.1265  -8.3270  -8.3136  -6.8748  -6.8639
    -6.8010  -6.7993  -5.4811  -5.4799  -4.5657  -4.5624  -4.5537  -4.5513
    -3.8599  -3.8591  -3.8546  -3.8545  -1.5925  -1.4957  -0.4916  -0.3704
    -0.3497  -0.2958   0.1364   0.2197   0.6364   0.6706   0.7334   0.7683
     3.9173   3.9827   4.0400   4.0767   4.5977   4.6698   4.6982   4.7444
     5.1228   5.2370   6.3220   6.3976  10.0662  10.3395

     the Fermi energy is     3.1530 ev

!    total energy              =    -290.42650923 Ry
     estimated scf accuracy    <       0.00000013 Ry
     smearing contrib. (-TS)   =      -0.00011885 Ry
     internal energy E=F+TS    =    -290.42639038 Ry

     The total energy is F=E-TS. E is the sum of the following terms:
     one-electron contribution =    -617.54876985 Ry
     hartree contribution      =     342.86323118 Ry
     xc contribution           =    -105.92419656 Ry
     ewald contribution        =      90.18334485 Ry

     convergence has been achieved in  11 iterations

     Forces acting on atoms (cartesian axes, Ry/au):

     atom    1 type  1   force =     0.04858204   -0.01711771    0.00000058
     atom    2 type  1   force =     0.02763702    0.04488957    0.00000210
     atom    3 type  1   force =    -0.01154467    0.05221569   -0.00000230
     atom    4 type  1   force =    -0.05146753    0.00129900   -0.00000316
     atom    5 type  1   force =    -0.04123580   -0.03768390    0.00000047
     atom    6 type  1   force =     0.02688471   -0.04626299   -0.00000029
     atom    7 type  1   force =     0.04158618    0.03788773    0.00000169
     atom    8 type  1   force =    -0.02694380    0.04574785    0.00000079
     atom    9 type  1   force =    -0.05034478    0.01670859   -0.00000299
     atom   10 type  1   force =    -0.02688555   -0.04492213    0.00000341
     atom   11 type  1   force =     0.01169058   -0.05226243   -0.00000225
     atom   12 type  1   force =     0.05050233   -0.00144370    0.00000001
     atom   13 type  1   force =     0.05034021   -0.01669983   -0.00000015
     atom   14 type  1   force =     0.02689340    0.04492482   -0.00000280
     atom   15 type  1   force =    -0.01166831    0.05224908   -0.00000160
     atom   16 type  1   force =    -0.05049458    0.00144261    0.00000162
     atom   17 type  1   force =    -0.04159880   -0.03789156    0.00000191
     atom   18 type  1   force =     0.02691852   -0.04575327   -0.00000033
     atom   19 type  1   force =     0.04122913    0.03767193   -0.00000246
     atom   20 type  1   force =    -0.02688041    0.04627216    0.00000229
     atom   21 type  1   force =    -0.04858964    0.01712126    0.00000157
     atom   22 type  1   force =    -0.02763034   -0.04491724    0.00000065
     atom   23 type  1   force =     0.01154543   -0.05219106    0.00000027
     atom   24 type  1   force =     0.05147467   -0.00128447    0.00000099

     Total force =     0.260322     Total SCF correction =     0.000846

     Writing all to output data dir ./calc.save/

     init_run     :      9.31s CPU      9.52s WALL (       1 calls)
     electrons    :     69.37s CPU     74.99s WALL (       1 calls)
     forces       :      2.75s CPU      2.82s WALL (       1 calls)

     Called by init_run:
     wfcinit      :      1.53s CPU      1.64s WALL (       1 calls)
     potinit      :      5.47s CPU      5.53s WALL (       1 calls)
     hinit0       :      2.04s CPU      2.06s WALL (       1 calls)

     Called by electrons:
     c_bands      :     57.94s CPU     62.42s WALL (      11 calls)
     sum_band     :      6.50s CPU      7.07s WALL (      11 calls)
     v_of_rho     :      9.36s CPU      9.88s WALL (      12 calls)
     mix_rho      :      0.14s CPU      0.15s WALL (      11 calls)
     vdW_kernel   :      4.21s CPU      4.22s WALL (       1 calls)

     Called by c_bands:
     init_us_2    :      0.54s CPU      0.54s WALL (     120 calls)
     init_us_2:cp :      0.54s CPU      0.54s WALL (     120 calls)
     cegterg      :     56.32s CPU     60.79s WALL (      55 calls)

     Called by *egterg:
     cdiaghg      :      1.59s CPU      1.63s WALL (     358 calls)
     h_psi        :     46.07s CPU     50.53s WALL (     363 calls)
     g_psi        :      0.25s CPU      0.25s WALL (     303 calls)

     Called by h_psi:
     h_psi:calbec :      3.07s CPU      3.11s WALL (     363 calls)
     vloc_psi     :     39.79s CPU     44.19s WALL (     363 calls)
     add_vuspsi   :      2.95s CPU      2.97s WALL (     363 calls)

     General routines
     calbec       :      3.34s CPU      3.39s WALL (     383 calls)
     fft          :      2.51s CPU      3.05s WALL (     780 calls)
     ffts         :      0.03s CPU      0.04s WALL (      11 calls)
     fftw         :     41.85s CPU     46.48s WALL (   26246 calls)

     Parallel routines

     PWSCF        :   1m21.70s CPU   1m29.11s WALL


   This run was terminated on:  17:26:47   3Dec2022            

=------------------------------------------------------------------------------=
   JOB DONE.
=------------------------------------------------------------------------------=
