
     Program PWSCF v.7.0 starts on  3Dec2022 at 18:22:15 

     This program is part of the open-source Quantum ESPRESSO suite
     for quantum simulation of materials; please cite
         "P. Giannozzi et al., J. Phys.:Condens. Matter 21 395502 (2009);
         "P. Giannozzi et al., J. Phys.:Condens. Matter 29 465901 (2017);
         "P. Giannozzi et al., J. Chem. Phys. 152 154105 (2020);
          URL http://www.quantum-espresso.org", 
     in publications or presentations arising from this work. More details at
     http://www.quantum-espresso.org/quote

     Parallel version (MPI), running on    24 processors

     MPI processes distributed on     1 nodes
     R & G space division:  proc/nbgrp/npool/nimage =      24
     372748 MiB available memory on the printing compute node when the environment starts

     Reading input from pw.inp
Warning: card &CELL ignored
Warning: card / ignored

     Current dimensions of program PWSCF are:
     Max number of different atomic species (ntypx) = 10
     Max number of k-points (npk) =  40000
     Max angular momentum in pseudopotentials (lmaxx) =  4
     Message from routine cell_base_init:
     DEPRECATED: use true lattice parameter, not A to a.u. conversion factor

     IMPORTANT: XC functional enforced from input :
     Exchange-correlation= PBE
                           (   1   4   3   4   0   0   0)
     Any further DFT definition will be discarded
     Please, verify this is what you really want


     Subspace diagonalization in iterative solution of the eigenvalue problem:
     one sub-group per band group will be used
     scalapack distributed-memory algorithm (size of sub-group:  4*  4 procs)


     Parallelization info
     --------------------
     sticks:   dense  smooth     PW     G-vecs:    dense   smooth      PW
     Min        1279    1279    348                35719    35719    5064
     Max        1281    1281    350                35720    35720    5065
     Sum       30727   30727   8371               857267   857267  121539

     Using Slab Decomposition



     bravais-lattice index     =            0
     lattice parameter (alat)  =       1.0000  a.u.
     unit-cell volume          =    2244.8709 (a.u.)^3
     number of atoms/cell      =           24
     number of atomic types    =            1
     number of electrons       =        96.00
     number of Kohn-Sham states=           62
     kinetic-energy cutoff     =     200.0000  Ry
     charge density cutoff     =     800.0000  Ry
     scf convergence threshold =      1.0E-06
     mixing beta               =       0.7000
     number of iterations used =            8  plain     mixing
     Exchange-correlation= PBE
                           (   1   4   3   4   0   0   0)

     celldm(1)=   1.000000  celldm(2)=   0.000000  celldm(3)=   0.000000
     celldm(4)=   0.000000  celldm(5)=   0.000000  celldm(6)=   0.000000

     crystal axes: (cart. coord. in units of alat)
               a(1) = (  30.187375   0.000000   0.000000 )  
               a(2) = (   0.000000  16.000000   0.000000 )  
               a(3) = (   0.000000   0.000000   4.647785 )  

     reciprocal axes: (cart. coord. in units 2 pi/alat)
               b(1) = (  0.033126  0.000000  0.000000 )  
               b(2) = (  0.000000  0.062500  0.000000 )  
               b(3) = (  0.000000  0.000000  0.215156 )  


     PseudoPot. # 1 for C  read from file:
     .././06_C_4_1.2_1.2_pbe_n_v1.0.upf
     MD5 check sum: 7e0e17a2517474b8bea671dc4b65026c
     Pseudo is Norm-conserving + core correction, Zval =  4.0
     Generated using ONCVPSP code by D. R. Hamann
     Using radial grid of 1246 points,  4 beta functions with: 
                l(1) =   0
                l(2) =   0
                l(3) =   1
                l(4) =   1

     atomic species   valence    mass     pseudopotential
        C              4.00    12.00000     C ( 1.00)

     No symmetry found


                                    s                        frac. trans.

      isym =  1     identity                                     

 cryst.   s( 1) = (     1          0          0      )
                  (     0          1          0      )
                  (     0          0          1      )

 cart.    s( 1) = (  1.0000000  0.0000000  0.0000000 )
                  (  0.0000000  1.0000000  0.0000000 )
                  (  0.0000000  0.0000000  1.0000000 )


   Cartesian axes

     site n.     atom                  positions (alat units)
         1           C   tau(   1) = (  11.8436874   8.0000000   0.0000000  )
         2           C   tau(   2) = (  10.9444353  10.4706746   0.0000000  )
         3           C   tau(   3) = (   6.0781563  11.3287309   0.0000000  )
         4           C   tau(   4) = (   4.3881153   9.3146185   0.0000000  )
         5           C   tau(   5) = (   6.0781563   4.6712691   0.0000000  )
         6           C   tau(   6) = (   8.6674493   4.2147069   0.0000000  )
         7           C   tau(   7) = (   9.9218437  11.3287309   2.3238926  )
         8           C   tau(   8) = (   7.3325507  11.7852931   2.3238926  )
         9           C   tau(   9) = (   4.1563126   8.0000000   2.3238926  )
        10           C   tau(  10) = (   5.0555647   5.5293254   2.3238926  )
        11           C   tau(  11) = (   9.9218437   4.6712691   2.3238926  )
        12           C   tau(  12) = (  11.6118847   6.6853815   2.3238926  )
        13           C   tau(  13) = (  26.0310621   8.0000000   0.0000000  )
        14           C   tau(  14) = (  25.1318101  10.4706746   0.0000000  )
        15           C   tau(  15) = (  20.2655311  11.3287309   0.0000000  )
        16           C   tau(  16) = (  18.5754901   9.3146185   0.0000000  )
        17           C   tau(  17) = (  20.2655311   4.6712691   0.0000000  )
        18           C   tau(  18) = (  22.8548240   4.2147069   0.0000000  )
        19           C   tau(  19) = (  24.1092184  11.3287309   2.3238926  )
        20           C   tau(  20) = (  21.5199254  11.7852931   2.3238926  )
        21           C   tau(  21) = (  18.3436874   8.0000000   2.3238926  )
        22           C   tau(  22) = (  19.2429394   5.5293254   2.3238926  )
        23           C   tau(  23) = (  24.1092184   4.6712691   2.3238926  )
        24           C   tau(  24) = (  25.7992594   6.6853815   2.3238926  )

   Crystallographic axes

     site n.     atom                  positions (cryst. coord.)
         1           C   tau(   1) = (  0.3923391  0.5000000  0.0000000  )
         2           C   tau(   2) = (  0.3625501  0.6544172  0.0000000  )
         3           C   tau(   3) = (  0.2013476  0.7080457  0.0000000  )
         4           C   tau(   4) = (  0.1453626  0.5821637  0.0000000  )
         5           C   tau(   5) = (  0.2013476  0.2919543  0.0000000  )
         6           C   tau(   6) = (  0.2871217  0.2634192  0.0000000  )
         7           C   tau(   7) = (  0.3286753  0.7080457  0.5000000  )
         8           C   tau(   8) = (  0.2429012  0.7365808  0.5000000  )
         9           C   tau(   9) = (  0.1376838  0.5000000  0.5000000  )
        10           C   tau(  10) = (  0.1674728  0.3455828  0.5000000  )
        11           C   tau(  11) = (  0.3286753  0.2919543  0.5000000  )
        12           C   tau(  12) = (  0.3846603  0.4178363  0.5000000  )
        13           C   tau(  13) = (  0.8623162  0.5000000  0.0000000  )
        14           C   tau(  14) = (  0.8325272  0.6544172  0.0000000  )
        15           C   tau(  15) = (  0.6713247  0.7080457  0.0000000  )
        16           C   tau(  16) = (  0.6153397  0.5821637  0.0000000  )
        17           C   tau(  17) = (  0.6713247  0.2919543  0.0000000  )
        18           C   tau(  18) = (  0.7570988  0.2634192  0.0000000  )
        19           C   tau(  19) = (  0.7986524  0.7080457  0.5000000  )
        20           C   tau(  20) = (  0.7128783  0.7365808  0.5000000  )
        21           C   tau(  21) = (  0.6076609  0.5000000  0.5000000  )
        22           C   tau(  22) = (  0.6374499  0.3455828  0.5000000  )
        23           C   tau(  23) = (  0.7986524  0.2919543  0.5000000  )
        24           C   tau(  24) = (  0.8546374  0.4178363  0.5000000  )

     number of k points=     5  Fermi-Dirac smearing, width (Ry)=  0.0020
                       cart. coord. in units 2pi/alat
        k(    1) = (   0.0000000   0.0000000   0.0107578), wk =   0.4000000
        k(    2) = (   0.0000000   0.0000000   0.0322734), wk =   0.4000000
        k(    3) = (   0.0000000   0.0000000   0.0537891), wk =   0.4000000
        k(    4) = (   0.0000000   0.0000000   0.0753047), wk =   0.4000000
        k(    5) = (   0.0000000   0.0000000   0.0968203), wk =   0.4000000

                       cryst. coord.
        k(    1) = (   0.0000000   0.0000000   0.0500000), wk =   0.4000000
        k(    2) = (   0.0000000   0.0000000   0.1500000), wk =   0.4000000
        k(    3) = (   0.0000000   0.0000000   0.2500000), wk =   0.4000000
        k(    4) = (   0.0000000   0.0000000   0.3500000), wk =   0.4000000
        k(    5) = (   0.0000000   0.0000000   0.4500000), wk =   0.4000000

     Dense  grid:   857267 G-vectors     FFT dimensions: ( 288, 150,  45)

     Dynamical RAM for                 wfc:       4.23 MB

     Dynamical RAM for     wfc (w. buffer):      25.36 MB

     Dynamical RAM for           str. fact:       0.55 MB

     Dynamical RAM for           local pot:       0.00 MB

     Dynamical RAM for          nlocal pot:      13.09 MB

     Dynamical RAM for                qrad:       0.65 MB

     Dynamical RAM for          rho,v,vnew:       3.61 MB

     Dynamical RAM for               rhoin:       1.20 MB

     Dynamical RAM for            rho*nmix:       8.72 MB

     Dynamical RAM for           G-vectors:       2.32 MB

     Dynamical RAM for          h,s,v(r/c):       0.04 MB

     Dynamical RAM for          <psi|beta>:       0.18 MB

     Dynamical RAM for                 psi:       8.45 MB

     Dynamical RAM for                hpsi:       8.45 MB

     Dynamical RAM for      wfcinit/wfcrot:       8.54 MB

     Estimated static dynamical RAM per process >      51.16 MB

     Estimated max dynamical RAM per process >      77.01 MB

     Estimated total dynamical RAM >       1.80 GB

     Initial potential from superposition of free atoms

     starting charge      95.9989, renormalised to      96.0000
     Starting wfcs are random

     total cpu time spent up to now is        5.0 secs

     per-process dynamical memory:    74.3 Mb

     Self-consistent Calculation

     iteration #  1     ecut=   200.00 Ry     beta= 0.70
     Davidson diagonalization with overlap

---- Real-time Memory Report at c_bands before calling an iterative solver
           128 MiB given to the printing process from OS
            72 MiB allocation reported by mallinfo(arena+hblkhd)
        371145 MiB available memory on the node where the printing process lives
------------------
     ethr =  1.00E-02,  avg # of iterations = 13.4

     total cpu time spent up to now is       22.8 secs

     total energy              =    -287.62425207 Ry
     estimated scf accuracy    <       2.59331476 Ry

     iteration #  2     ecut=   200.00 Ry     beta= 0.70
     Davidson diagonalization with overlap

---- Real-time Memory Report at c_bands before calling an iterative solver
           151 MiB given to the printing process from OS
            87 MiB allocation reported by mallinfo(arena+hblkhd)
        370814 MiB available memory on the node where the printing process lives
------------------
     ethr =  2.70E-03,  avg # of iterations =  3.8

     total cpu time spent up to now is       28.4 secs

     total energy              =    -288.03898390 Ry
     estimated scf accuracy    <       0.52131500 Ry

     iteration #  3     ecut=   200.00 Ry     beta= 0.70
     Davidson diagonalization with overlap

---- Real-time Memory Report at c_bands before calling an iterative solver
           152 MiB given to the printing process from OS
            88 MiB allocation reported by mallinfo(arena+hblkhd)
        370798 MiB available memory on the node where the printing process lives
------------------
     ethr =  5.43E-04,  avg # of iterations =  4.0

     total cpu time spent up to now is       33.9 secs

     total energy              =    -288.21522877 Ry
     estimated scf accuracy    <       0.13855949 Ry

     iteration #  4     ecut=   200.00 Ry     beta= 0.70
     Davidson diagonalization with overlap

---- Real-time Memory Report at c_bands before calling an iterative solver
           153 MiB given to the printing process from OS
            89 MiB allocation reported by mallinfo(arena+hblkhd)
        370772 MiB available memory on the node where the printing process lives
------------------
     ethr =  1.44E-04,  avg # of iterations =  7.2

     total cpu time spent up to now is       39.3 secs

     total energy              =    -288.24005292 Ry
     estimated scf accuracy    <       0.01434646 Ry

     iteration #  5     ecut=   200.00 Ry     beta= 0.70
     Davidson diagonalization with overlap

---- Real-time Memory Report at c_bands before calling an iterative solver
           154 MiB given to the printing process from OS
            90 MiB allocation reported by mallinfo(arena+hblkhd)
        370743 MiB available memory on the node where the printing process lives
------------------
     c_bands:  1 eigenvalues not converged
     ethr =  1.49E-05,  avg # of iterations = 13.6

     total cpu time spent up to now is       46.1 secs

     total energy              =    -288.24249556 Ry
     estimated scf accuracy    <       0.02171458 Ry

     iteration #  6     ecut=   200.00 Ry     beta= 0.70
     Davidson diagonalization with overlap

---- Real-time Memory Report at c_bands before calling an iterative solver
           156 MiB given to the printing process from OS
            91 MiB allocation reported by mallinfo(arena+hblkhd)
        370703 MiB available memory on the node where the printing process lives
------------------
     ethr =  1.49E-05,  avg # of iterations = 10.4

     total cpu time spent up to now is       51.1 secs

     total energy              =    -288.24385752 Ry
     estimated scf accuracy    <       0.01614592 Ry

     iteration #  7     ecut=   200.00 Ry     beta= 0.70
     Davidson diagonalization with overlap

---- Real-time Memory Report at c_bands before calling an iterative solver
           156 MiB given to the printing process from OS
            92 MiB allocation reported by mallinfo(arena+hblkhd)
        370691 MiB available memory on the node where the printing process lives
------------------
     ethr =  1.49E-05,  avg # of iterations =  3.4

     total cpu time spent up to now is       55.4 secs

     total energy              =    -288.24550386 Ry
     estimated scf accuracy    <       0.00039734 Ry

     iteration #  8     ecut=   200.00 Ry     beta= 0.70
     Davidson diagonalization with overlap

---- Real-time Memory Report at c_bands before calling an iterative solver
           158 MiB given to the printing process from OS
            93 MiB allocation reported by mallinfo(arena+hblkhd)
        370665 MiB available memory on the node where the printing process lives
------------------
     c_bands:  1 eigenvalues not converged
     ethr =  4.14E-07,  avg # of iterations = 12.0

     total cpu time spent up to now is       61.1 secs

     total energy              =    -288.24558698 Ry
     estimated scf accuracy    <       0.00004192 Ry

     iteration #  9     ecut=   200.00 Ry     beta= 0.70
     Davidson diagonalization with overlap

---- Real-time Memory Report at c_bands before calling an iterative solver
           159 MiB given to the printing process from OS
            94 MiB allocation reported by mallinfo(arena+hblkhd)
        370638 MiB available memory on the node where the printing process lives
------------------
     ethr =  4.37E-08,  avg # of iterations =  4.2

     total cpu time spent up to now is       68.3 secs

     total energy              =    -288.24559411 Ry
     estimated scf accuracy    <       0.00000733 Ry

     iteration # 10     ecut=   200.00 Ry     beta= 0.70
     Davidson diagonalization with overlap

---- Real-time Memory Report at c_bands before calling an iterative solver
           160 MiB given to the printing process from OS
            95 MiB allocation reported by mallinfo(arena+hblkhd)
        370605 MiB available memory on the node where the printing process lives
------------------
     ethr =  7.63E-09,  avg # of iterations =  2.8

     total cpu time spent up to now is       73.1 secs

     total energy              =    -288.24559507 Ry
     estimated scf accuracy    <       0.00000319 Ry

     iteration # 11     ecut=   200.00 Ry     beta= 0.70
     Davidson diagonalization with overlap

---- Real-time Memory Report at c_bands before calling an iterative solver
           161 MiB given to the printing process from OS
            96 MiB allocation reported by mallinfo(arena+hblkhd)
        370581 MiB available memory on the node where the printing process lives
------------------
     ethr =  3.33E-09,  avg # of iterations =  2.0

     total cpu time spent up to now is       77.5 secs

     End of self-consistent calculation

          k = 0.0000 0.0000 0.0108 (107319 PWs)   bands (ev):

   -17.6673 -17.6597 -16.6428 -16.6321 -16.6277 -16.6211 -14.1569 -14.1420
   -14.1378 -14.1316 -11.2345 -11.2138 -10.2815 -10.2785  -6.9933  -6.9770
    -6.9583  -6.9541  -5.7522  -5.6396  -4.8111  -4.6889  -4.6850  -4.6195
    -4.3722  -4.3702  -3.5798  -3.5773  -3.5706  -3.5690  -2.1665  -2.1125
    -2.0994  -2.0907  -1.5863  -1.5851  -1.5805  -1.5784  -0.9632  -0.7876
    -0.6890  -0.6739  -0.4406  -0.4289  -0.2840  -0.2815   1.9439   2.1101
     4.1560   4.3291   6.1893   6.4762   6.6322   6.7940   6.9250   7.0476
     7.2394   7.2781   7.3771   7.8269   7.9973   8.0539

     occupation numbers 
     1.0000   1.0000   1.0000   1.0000   1.0000   1.0000   1.0000   1.0000
     1.0000   1.0000   1.0000   1.0000   1.0000   1.0000   1.0000   1.0000
     1.0000   1.0000   1.0000   1.0000   1.0000   1.0000   1.0000   1.0000
     1.0000   1.0000   1.0000   1.0000   1.0000   1.0000   1.0000   1.0000
     1.0000   1.0000   1.0000   1.0000   1.0000   1.0000   1.0000   1.0000
     1.0000   1.0000   1.0000   1.0000   1.0000   1.0000   1.0000   1.0000
     0.0000   0.0000   0.0000   0.0000   0.0000   0.0000   0.0000   0.0000
     0.0000   0.0000   0.0000   0.0000   0.0000   0.0000

          k = 0.0000 0.0000 0.0323 (107329 PWs)   bands (ev):

   -17.3050 -17.2975 -16.2889 -16.2784 -16.2740 -16.2675 -13.8211 -13.8067
   -13.8025 -13.7966 -10.9290 -10.9091 -10.0123 -10.0094  -6.8852  -6.8729
    -6.8567  -6.8526  -5.7648  -5.7619  -5.3453  -5.2360  -4.8325  -4.8276
    -4.8225  -4.8213  -4.5864  -4.4973  -4.4950  -4.4444  -3.0420  -3.0056
    -2.9946  -2.9802  -1.9096  -1.8660  -1.8559  -1.8477  -1.4895  -1.4856
    -1.0618  -1.0564  -0.6201  -0.4502  -0.3555  -0.3304   2.3080   2.4714
     4.0538   4.1914   6.3481   6.5039   6.6416   6.7035   6.8163   7.3793
     7.4390   7.4957   7.5316   7.6007   7.6617   7.7182

     occupation numbers 
     1.0000   1.0000   1.0000   1.0000   1.0000   1.0000   1.0000   1.0000
     1.0000   1.0000   1.0000   1.0000   1.0000   1.0000   1.0000   1.0000
     1.0000   1.0000   1.0000   1.0000   1.0000   1.0000   1.0000   1.0000
     1.0000   1.0000   1.0000   1.0000   1.0000   1.0000   1.0000   1.0000
     1.0000   1.0000   1.0000   1.0000   1.0000   1.0000   1.0000   1.0000
     1.0000   1.0000   1.0000   1.0000   1.0000   1.0000   1.0000   1.0000
     0.0000   0.0000   0.0000   0.0000   0.0000   0.0000   0.0000   0.0000
     0.0000   0.0000   0.0000   0.0000   0.0000   0.0000

          k = 0.0000 0.0000 0.0538 (107265 PWs)   bands (ev):

   -16.5846 -16.5774 -15.5855 -15.5755 -15.5710 -15.5647 -13.1582 -13.1445
   -13.1407 -13.1352 -10.3202 -10.3019  -9.6948  -9.6917  -7.5761  -7.5735
    -7.5655  -7.5640  -7.5134  -7.5095  -5.6575  -5.6516  -5.6370  -5.6340
    -5.3777  -5.3776  -5.3694  -5.3675  -4.5786  -4.4825  -3.5497  -3.4718
    -3.4672  -3.4257  -3.2403  -3.2341  -2.1520  -2.1358  -1.9178  -1.8367
    -1.8212  -1.7951   0.0087   0.1614   0.2488   0.2710   3.0057   3.1685
     3.3938   3.4884   5.6930   5.7532   5.8491   5.9139   6.6568   6.7184
     6.7555   6.8097   7.5894   7.6261   7.6388   8.3056

     occupation numbers 
     1.0000   1.0000   1.0000   1.0000   1.0000   1.0000   1.0000   1.0000
     1.0000   1.0000   1.0000   1.0000   1.0000   1.0000   1.0000   1.0000
     1.0000   1.0000   1.0000   1.0000   1.0000   1.0000   1.0000   1.0000
     1.0000   1.0000   1.0000   1.0000   1.0000   1.0000   1.0000   1.0000
     1.0000   1.0000   1.0000   1.0000   1.0000   1.0000   1.0000   1.0000
     1.0000   1.0000   1.0000   1.0000   1.0000   1.0000   1.0000   0.9841
     0.0155   0.0005   0.0000   0.0000   0.0000   0.0000   0.0000   0.0000
     0.0000   0.0000   0.0000   0.0000   0.0000   0.0000

          k = 0.0000 0.0000 0.0753 (107095 PWs)   bands (ev):

   -15.5157 -15.5089 -14.5440 -14.5348 -14.5301 -14.5242 -12.2093 -12.1969
   -12.1933 -12.1893 -10.6358 -10.6312  -9.4139  -9.4062  -9.4006  -9.3971
    -9.3942  -9.3919  -7.7760  -7.7736  -7.2641  -7.2575  -7.2547  -7.2509
    -5.1948  -5.1882  -5.1752  -5.1724  -5.0656  -5.0571  -4.1575  -4.1392
    -3.3324  -3.3156  -3.3128  -3.3002  -2.8101  -2.7230  -1.5133  -1.3814
    -1.3638  -1.3100   0.7231   0.8233   0.9081   0.9151   1.9907   2.0586
     4.0399   4.1750   4.5526   4.5592   4.6580   4.6582   5.6985   5.7099
     5.7476   5.7961   7.3128   7.3331   9.0514   9.6243

     occupation numbers 
     1.0000   1.0000   1.0000   1.0000   1.0000   1.0000   1.0000   1.0000
     1.0000   1.0000   1.0000   1.0000   1.0000   1.0000   1.0000   1.0000
     1.0000   1.0000   1.0000   1.0000   1.0000   1.0000   1.0000   1.0000
     1.0000   1.0000   1.0000   1.0000   1.0000   1.0000   1.0000   1.0000
     1.0000   1.0000   1.0000   1.0000   1.0000   1.0000   1.0000   1.0000
     1.0000   1.0000   1.0000   1.0000   1.0000   1.0000   1.0000   1.0000
     0.0000   0.0000   0.0000   0.0000   0.0000   0.0000   0.0000   0.0000
     0.0000   0.0000   0.0000   0.0000   0.0000   0.0000

          k = 0.0000 0.0000 0.0968 (106989 PWs)   bands (ev):

   -14.1184 -14.1121 -13.1950 -13.1870 -13.1820 -13.1765 -12.4385 -12.4329
   -11.7519 -11.7499 -11.7422 -11.7378 -10.4430 -10.4362 -10.4316 -10.4277
    -9.0725  -9.0641  -9.0613  -9.0562  -8.2183  -8.2045  -6.7553  -6.7509
    -6.7492  -6.7441  -5.4025  -5.4011  -4.4515  -4.4480  -4.4393  -4.4367
    -3.7296  -3.7289  -3.7242  -3.7240  -1.5299  -1.4351  -0.4084  -0.2909
    -0.2717  -0.2155   0.2141   0.2955   0.7353   0.7690   0.8295   0.8645
     3.9903   4.0563   4.1129   4.1516   4.6728   4.7442   4.7712   4.8196
     5.2533   5.3685   6.4515   6.5281  10.7438  10.9154

     occupation numbers 
     1.0000   1.0000   1.0000   1.0000   1.0000   1.0000   1.0000   1.0000
     1.0000   1.0000   1.0000   1.0000   1.0000   1.0000   1.0000   1.0000
     1.0000   1.0000   1.0000   1.0000   1.0000   1.0000   1.0000   1.0000
     1.0000   1.0000   1.0000   1.0000   1.0000   1.0000   1.0000   1.0000
     1.0000   1.0000   1.0000   1.0000   1.0000   1.0000   1.0000   1.0000
     1.0000   1.0000   1.0000   1.0000   1.0000   1.0000   1.0000   1.0000
     0.0000   0.0000   0.0000   0.0000   0.0000   0.0000   0.0000   0.0000
     0.0000   0.0000   0.0000   0.0000   0.0000   0.0000

     the Fermi energy is     3.2807 ev

!    total energy              =    -288.24559546 Ry
     estimated scf accuracy    <       0.00000037 Ry
     smearing contrib. (-TS)   =      -0.00013283 Ry
     internal energy E=F+TS    =    -288.24546263 Ry

     The total energy is F=E-TS. E is the sum of the following terms:
     one-electron contribution =    -617.66115291 Ry
     hartree contribution      =     342.75566108 Ry
     xc contribution           =    -103.52331565 Ry
     ewald contribution        =      90.18334485 Ry

     convergence has been achieved in  11 iterations

     Forces acting on atoms (cartesian axes, Ry/au):

     atom    1 type  1   force =     0.04210843   -0.01949231   -0.00000435
     atom    2 type  1   force =     0.01990776    0.04224798   -0.00000127
     atom    3 type  1   force =    -0.00575895    0.04706809   -0.00000159
     atom    4 type  1   force =    -0.04556127   -0.00333801    0.00000647
     atom    5 type  1   force =    -0.03987461   -0.02989182   -0.00000807
     atom    6 type  1   force =     0.02810041   -0.03846216   -0.00000485
     atom    7 type  1   force =     0.03994987    0.02980209    0.00001059
     atom    8 type  1   force =    -0.02817869    0.03817357    0.00000309
     atom    9 type  1   force =    -0.04310944    0.01920001    0.00000008
     atom   10 type  1   force =    -0.01970502   -0.04230733    0.00000117
     atom   11 type  1   force =     0.00567605   -0.04681539    0.00000106
     atom   12 type  1   force =     0.04442291    0.00303528    0.00000231
     atom   13 type  1   force =     0.04313246   -0.01919224    0.00000813
     atom   14 type  1   force =     0.01972231    0.04230462   -0.00000308
     atom   15 type  1   force =    -0.00563070    0.04682531   -0.00000390
     atom   16 type  1   force =    -0.04441257   -0.00305255    0.00000031
     atom   17 type  1   force =    -0.04000256   -0.02981091    0.00000838
     atom   18 type  1   force =     0.02817191   -0.03816364   -0.00000242
     atom   19 type  1   force =     0.03986895    0.02987922   -0.00000608
     atom   20 type  1   force =    -0.02811351    0.03847626    0.00000574
     atom   21 type  1   force =    -0.04213146    0.01946880   -0.00000423
     atom   22 type  1   force =    -0.01992094   -0.04227777   -0.00000234
     atom   23 type  1   force =     0.00576769   -0.04704581   -0.00000166
     atom   24 type  1   force =     0.04557096    0.00336872   -0.00000347
     The non-local contrib.  to forces
     atom    1 type  1   force =     0.03030173    0.00572895   -0.00000490
     atom    2 type  1   force =     0.02577519    0.01725854   -0.00000051
     atom    3 type  1   force =    -0.01931419    0.02563943   -0.00000312
     atom    4 type  1   force =    -0.02567842    0.01362479    0.00000924
     atom    5 type  1   force =    -0.01451092   -0.03235775   -0.00001031
     atom    6 type  1   force =     0.00053314   -0.03115411   -0.00000565
     atom    7 type  1   force =     0.01414430    0.03248623    0.00001388
     atom    8 type  1   force =    -0.00039831    0.03018572    0.00000885
     atom    9 type  1   force =    -0.03075961   -0.00452455    0.00000345
     atom   10 type  1   force =    -0.02643343   -0.01582754    0.00000338
     atom   11 type  1   force =     0.02018688   -0.02552899    0.00000234
     atom   12 type  1   force =     0.02441627   -0.01234663    0.00000144
     atom   13 type  1   force =     0.03076041    0.00447087    0.00000883
     atom   14 type  1   force =     0.02649315    0.01585585   -0.00000273
     atom   15 type  1   force =    -0.02012907    0.02547672   -0.00000573
     atom   16 type  1   force =    -0.02439725    0.01238061   -0.00000036
     atom   17 type  1   force =    -0.01418728   -0.03244569    0.00001059
     atom   18 type  1   force =     0.00035748   -0.03020887   -0.00000166
     atom   19 type  1   force =     0.01448832    0.03249134   -0.00000865
     atom   20 type  1   force =    -0.00060844    0.03102823    0.00000426
     atom   21 type  1   force =    -0.03030813   -0.00571301   -0.00000122
     atom   22 type  1   force =    -0.02579038   -0.01728965    0.00000102
     atom   23 type  1   force =     0.01933365   -0.02558694    0.00000142
     atom   24 type  1   force =     0.02566415   -0.01360156    0.00000101
     The ionic contribution  to forces
     atom    1 type  1   force =     7.18497774   -0.00773726   -0.00000000
     atom    2 type  1   force =     5.84983532    7.86409537   -0.00000000
     atom    3 type  1   force =    -7.51757905    9.68745881    0.00000000
     atom    4 type  1   force =   -11.31322204    4.22899954   -0.00000000
     atom    5 type  1   force =    -7.48661890   -9.69278746   -0.00000000
     atom    6 type  1   force =     0.02962035  -10.72916553    0.00000000
     atom    7 type  1   force =     3.50661331    9.89745696   -0.00000000
     atom    8 type  1   force =    -3.94542006   10.66289635   -0.00000000
     atom    9 type  1   force =   -11.69903078   -0.00518747   -0.00000000
     atom   10 type  1   force =    -9.99696731   -7.55744720   -0.00000000
     atom   11 type  1   force =     3.54151856   -9.89047278    0.00000000
     atom   12 type  1   force =     6.93542028   -4.49167994   -0.00000000
     atom   13 type  1   force =    11.69903078    0.00518747   -0.00000000
     atom   14 type  1   force =     9.99696731    7.55744720   -0.00000000
     atom   15 type  1   force =    -3.54151856    9.89047278   -0.00000000
     atom   16 type  1   force =    -6.93542028    4.49167994   -0.00000000
     atom   17 type  1   force =    -3.50661331   -9.89745696   -0.00000000
     atom   18 type  1   force =     3.94542006  -10.66289635    0.00000000
     atom   19 type  1   force =     7.48661890    9.69278746   -0.00000000
     atom   20 type  1   force =    -0.02962035   10.72916553   -0.00000000
     atom   21 type  1   force =    -7.18497774    0.00773726   -0.00000000
     atom   22 type  1   force =    -5.84983532   -7.86409537    0.00000000
     atom   23 type  1   force =     7.51757905   -9.68745881   -0.00000000
     atom   24 type  1   force =    11.31322204   -4.22899954    0.00000000
     The local contribution  to forces
     atom    1 type  1   force =    -7.16149527   -0.01788852    0.00000240
     atom    2 type  1   force =    -5.84701021   -7.83145324    0.00000293
     atom    3 type  1   force =     7.52581555   -9.65567570    0.00000232
     atom    4 type  1   force =    11.28226848   -4.24287288   -0.00000105
     atom    5 type  1   force =     7.45458199    9.68535370    0.00000519
     atom    6 type  1   force =     0.00022411   10.71065852    0.00000254
     atom    7 type  1   force =    -3.47431106   -9.89031903   -0.00000415
     atom    8 type  1   force =     3.91513206  -10.64360448   -0.00000474
     atom    9 type  1   force =    11.67505560    0.02922945   -0.00000405
     atom   10 type  1   force =     9.99510966    7.52308322   -0.00000372
     atom   11 type  1   force =    -3.55064576    9.85898432   -0.00000113
     atom   12 type  1   force =    -6.90438545    4.50402279    0.00000047
     atom   13 type  1   force =   -11.67472934   -0.02956742    0.00000149
     atom   14 type  1   force =    -9.99508533   -7.52317513   -0.00000013
     atom   15 type  1   force =     3.55028770   -9.85867131    0.00000239
     atom   16 type  1   force =     6.90413707   -4.50376503    0.00000062
     atom   17 type  1   force =     3.47405556    9.89015718   -0.00000058
     atom   18 type  1   force =    -3.91510460   10.64357351    0.00000075
     atom   19 type  1   force =    -7.45489502   -9.68535605    0.00000395
     atom   20 type  1   force =    -0.00075145  -10.71030670    0.00000194
     atom   21 type  1   force =     7.16119398    0.01802987   -0.00000200
     atom   22 type  1   force =     5.84681388    7.83134720   -0.00000269
     atom   23 type  1   force =    -7.52558026    9.65562847   -0.00000203
     atom   24 type  1   force =   -11.28196274    4.24257905   -0.00000472
     The core correction contribution to forces
     atom    1 type  1   force =    -0.01159363    0.00049875    0.00000019
     atom    2 type  1   force =    -0.00854188   -0.00792806   -0.00000002
     atom    3 type  1   force =     0.00535604   -0.01038828    0.00000012
     atom    4 type  1   force =     0.01102736   -0.00342555   -0.00000024
     atom    5 type  1   force =     0.00638827    0.00995298    0.00000030
     atom    6 type  1   force =    -0.00252202    0.01137665    0.00000015
     atom    7 type  1   force =    -0.00637803   -0.00995949   -0.00000031
     atom    8 type  1   force =     0.00251787   -0.01133444   -0.00000035
     atom    9 type  1   force =     0.01161466   -0.00053868   -0.00000026
     atom   10 type  1   force =     0.00856880    0.00786758   -0.00000015
     atom   11 type  1   force =    -0.00539254    0.01038917   -0.00000011
     atom   12 type  1   force =    -0.01096557    0.00337898    0.00000002
     atom   13 type  1   force =    -0.01161391    0.00053965   -0.00000015
     atom   14 type  1   force =    -0.00857272   -0.00786937    0.00000007
     atom   15 type  1   force =     0.00538926   -0.01038512    0.00000025
     atom   16 type  1   force =     0.01096453   -0.00337961   -0.00000001
     atom   17 type  1   force =     0.00637919    0.00995649   -0.00000028
     atom   18 type  1   force =    -0.00251546    0.01133653    0.00000004
     atom   19 type  1   force =    -0.00639004   -0.00996017    0.00000027
     atom   20 type  1   force =     0.00252290   -0.01136863    0.00000002
     atom   21 type  1   force =     0.01159284   -0.00049883   -0.00000007
     atom   22 type  1   force =     0.00854227    0.00792903   -0.00000018
     atom   23 type  1   force =    -0.00535674    0.01038634   -0.00000010
     atom   24 type  1   force =    -0.01102643    0.00342310   -0.00000015
     The Hubbard contrib.    to forces
     atom    1 type  1   force =     0.00000000    0.00000000    0.00000000
     atom    2 type  1   force =     0.00000000    0.00000000    0.00000000
     atom    3 type  1   force =     0.00000000    0.00000000    0.00000000
     atom    4 type  1   force =     0.00000000    0.00000000    0.00000000
     atom    5 type  1   force =     0.00000000    0.00000000    0.00000000
     atom    6 type  1   force =     0.00000000    0.00000000    0.00000000
     atom    7 type  1   force =     0.00000000    0.00000000    0.00000000
     atom    8 type  1   force =     0.00000000    0.00000000    0.00000000
     atom    9 type  1   force =     0.00000000    0.00000000    0.00000000
     atom   10 type  1   force =     0.00000000    0.00000000    0.00000000
     atom   11 type  1   force =     0.00000000    0.00000000    0.00000000
     atom   12 type  1   force =     0.00000000    0.00000000    0.00000000
     atom   13 type  1   force =     0.00000000    0.00000000    0.00000000
     atom   14 type  1   force =     0.00000000    0.00000000    0.00000000
     atom   15 type  1   force =     0.00000000    0.00000000    0.00000000
     atom   16 type  1   force =     0.00000000    0.00000000    0.00000000
     atom   17 type  1   force =     0.00000000    0.00000000    0.00000000
     atom   18 type  1   force =     0.00000000    0.00000000    0.00000000
     atom   19 type  1   force =     0.00000000    0.00000000    0.00000000
     atom   20 type  1   force =     0.00000000    0.00000000    0.00000000
     atom   21 type  1   force =     0.00000000    0.00000000    0.00000000
     atom   22 type  1   force =     0.00000000    0.00000000    0.00000000
     atom   23 type  1   force =     0.00000000    0.00000000    0.00000000
     atom   24 type  1   force =     0.00000000    0.00000000    0.00000000
     The SCF correction term to forces
     atom    1 type  1   force =    -0.00008068   -0.00009345   -0.00000135
     atom    2 type  1   force =    -0.00014919    0.00027615   -0.00000299
     atom    3 type  1   force =    -0.00003584    0.00003462   -0.00000023
     atom    4 type  1   force =     0.00004482    0.00033686   -0.00000080
     atom    5 type  1   force =     0.00028642   -0.00005251   -0.00000257
     atom    6 type  1   force =     0.00024630   -0.00017691   -0.00000121
     atom    7 type  1   force =    -0.00011718    0.00013819    0.00000186
     atom    8 type  1   force =    -0.00000878    0.00003120    0.00000001
     atom    9 type  1   force =     0.00001215    0.00022203    0.00000162
     atom   10 type  1   force =     0.00001873    0.00001739    0.00000235
     atom   11 type  1   force =     0.00001039   -0.00018633    0.00000063
     atom   12 type  1   force =    -0.00006115   -0.00033914    0.00000106
     atom   13 type  1   force =    -0.00031402    0.00017797   -0.00000136
     atom   14 type  1   force =    -0.00007864    0.00004685    0.00000040
     atom   15 type  1   force =     0.00034144   -0.00006698   -0.00000013
     atom   16 type  1   force =     0.00030482    0.00003231    0.00000074
     atom   17 type  1   force =     0.00036474   -0.00002114   -0.00000068
     atom   18 type  1   force =     0.00001589    0.00003231   -0.00000086
     atom   19 type  1   force =     0.00004827   -0.00008259   -0.00000098
     atom   20 type  1   force =     0.00034530   -0.00004140    0.00000020
     atom   21 type  1   force =     0.00036905   -0.00008572   -0.00000026
     atom   22 type  1   force =     0.00035008   -0.00016820    0.00000020
     atom   23 type  1   force =    -0.00020654   -0.00001408   -0.00000026
     atom   24 type  1   force =    -0.00032459   -0.00003155    0.00000106

     Total force =     0.231405     Total SCF correction =     0.001307

     Writing all to output data dir ./calc.save/

     init_run     :      4.75s CPU      4.94s WALL (       1 calls)
     electrons    :     67.52s CPU     72.58s WALL (       1 calls)
     forces       :      2.40s CPU      2.45s WALL (       1 calls)

     Called by init_run:
     wfcinit      :      1.52s CPU      1.65s WALL (       1 calls)
     wfcinit:wfcr :      1.35s CPU      1.47s WALL (       5 calls)
     potinit      :      0.90s CPU      0.91s WALL (       1 calls)
     hinit0       :      2.04s CPU      2.05s WALL (       1 calls)

     Called by electrons:
     c_bands      :     59.96s CPU     64.23s WALL (      11 calls)
     sum_band     :      6.52s CPU      7.14s WALL (      11 calls)
     v_of_rho     :      0.95s CPU      1.02s WALL (      12 calls)
     v_h          :      0.04s CPU      0.05s WALL (      12 calls)
     v_xc         :      0.98s CPU      1.05s WALL (      13 calls)
     mix_rho      :      0.13s CPU      0.14s WALL (      11 calls)

     Called by c_bands:
     init_us_2    :      0.54s CPU      0.55s WALL (     120 calls)
     init_us_2:cp :      0.54s CPU      0.55s WALL (     120 calls)
     cegterg      :     58.37s CPU     62.60s WALL (      55 calls)

     Called by sum_band:
     sum_band:wei :      0.00s CPU      0.00s WALL (      11 calls)
     sum_band:loo :      6.45s CPU      7.06s WALL (      11 calls)
     sum_band:buf :      0.08s CPU      0.08s WALL (      55 calls)
     sum_band:ini :      0.25s CPU      0.25s WALL (      55 calls)

     Called by *egterg:
     cdiaghg      :      1.90s CPU      1.98s WALL (     439 calls)
     cegterg:over :      3.33s CPU      3.36s WALL (     384 calls)
     cegterg:upda :      2.70s CPU      2.74s WALL (     384 calls)
     cegterg:last :      2.97s CPU      3.00s WALL (     151 calls)
     cdiaghg:chol :      0.11s CPU      0.12s WALL (     439 calls)
     cdiaghg:inve :      0.02s CPU      0.03s WALL (     439 calls)
     cdiaghg:para :      0.19s CPU      0.21s WALL (     878 calls)
     h_psi        :     47.40s CPU     51.57s WALL (     444 calls)
     g_psi        :      0.25s CPU      0.25s WALL (     384 calls)

     Called by h_psi:
     h_psi:calbec :      3.32s CPU      3.38s WALL (     444 calls)
     vloc_psi     :     40.60s CPU     44.68s WALL (     444 calls)
     add_vuspsi   :      3.22s CPU      3.24s WALL (     444 calls)

     General routines
     calbec       :      3.60s CPU      3.66s WALL (     464 calls)
     fft          :      0.79s CPU      0.87s WALL (     130 calls)
     ffts         :      0.03s CPU      0.03s WALL (      11 calls)
     fftw         :     42.76s CPU     47.17s WALL (   25956 calls)

     Parallel routines

     PWSCF        :   1m14.92s CPU   1m21.76s WALL


   This run was terminated on:  18:23:36   3Dec2022            

=------------------------------------------------------------------------------=
   JOB DONE.
=------------------------------------------------------------------------------=
