:MDSTEP: 20
:R(Bohr):
  5.3411998963E+01   1.4921155724E-02   4.6420097786E+01
  3.9982736804E+00   5.3077590555E+01   5.0248642102E+01
  5.3478427103E+01   3.1875331703E+00   4.9678879659E+01
  5.3135891257E+01   3.9669908800E-01   3.8235524922E+01
  3.6659784953E+00   5.3479882186E+01   4.1598626893E+01
  7.1065872811E+00   3.5792919040E-01   4.5645422174E+01
  1.0689594518E+01   5.3347157317E+01   4.9984176105E+01
  5.3452332913E+01   4.0136481602E+00   4.2668781103E+01
  3.7694976988E+00   3.5067525473E+00   4.6123121115E+01
  7.3190948121E+00   3.7649083453E+00   4.9156653474E+01
  5.3486807372E+01   7.4326902580E+00   4.6116778387E+01
  3.9665875890E+00   7.6417129874E+00   5.0267151776E+01
  5.3512153189E+01   1.1714350288E+01   4.9534034887E+01
  6.5826565810E-01   5.3438883836E+01   3.0228340747E+01
  3.0206603738E+00   3.5221799318E-01   3.4087297954E+01
  7.7786210181E+00   5.2960242482E+01   3.8405938992E+01
  1.1192905963E+01   5.3427040535E+01   4.2400957573E+01
  1.5089377115E+01   3.0706744056E-01   4.5726852020E+01
  1.8954190917E+01   5.3381320265E+01   4.9682850567E+01
  5.3516872063E+01   3.9494251436E+00   3.4112130414E+01
  3.9816203774E+00   3.5835024088E+00   3.8113577324E+01
  8.2785460291E+00   3.6423091540E+00   4.2219820706E+01
  1.1393668068E+01   3.7164230331E+00   4.5932957464E+01
  1.5394528338E+01   4.3348706419E+00   4.9654818216E+01
  1.2434282761E-01   8.2695054415E+00   3.8281669303E+01
  4.1420861921E+00   7.4019806261E+00   4.1447539195E+01
  7.1196715605E+00   7.8937447965E+00   4.5728179818E+01
  1.1176418460E+01   7.6404678150E+00   4.9829114454E+01
  5.3067793327E+01   1.1350115465E+01   4.2544717040E+01
  4.1203145731E+00   1.1841373672E+01   4.6019011872E+01
  7.4422527488E+00   1.1932679622E+01   4.9721635596E+01
  5.3251995820E+01   1.5337669535E+01   4.5474247835E+01
  4.1573046580E+00   1.5510850760E+01   4.9325001145E+01
  5.3259531949E+01   1.9204717087E+01   4.9396285366E+01
  5.3387313291E+01   4.1198946740E-01   2.2730356045E+01
  3.7941282556E+00   5.3266781794E+01   2.6443342188E+01
  7.8448169672E+00   5.3335612776E+01   3.0697780075E+01
  1.1956894164E+01   5.3548790003E+01   3.4087186763E+01
  1.4628006292E+01   9.7954776673E-02   3.7843006592E+01
  1.9117329862E+01   5.3323410096E+01   4.2168996185E+01
  2.3334012556E+01   1.8687590867E-01   4.6331860997E+01
  2.7035977449E+01   2.6236847351E-01   4.9925633062E+01
  5.3424370049E+01   3.3067916034E+00   2.6723081026E+01
  4.2462834047E+00   4.2663531863E+00   3.0414317644E+01
  7.5043125677E+00   3.9518776952E+00   3.4507477416E+01
  1.1250901129E+01   4.0991960013E+00   3.8434697125E+01
  1.5651451847E+01   3.4498690917E+00   4.1774677059E+01
  1.9038445130E+01   3.5881444710E+00   4.6360897518E+01
  2.3230054257E+01   3.5748895355E+00   4.9627013650E+01
  5.3261052561E+01   7.4627449674E+00   3.0309528051E+01
  3.5294434498E+00   7.3916972199E+00   3.4529326332E+01
  7.7559808346E+00   7.3684609308E+00   3.8381135098E+01
  1.1560387605E+01   7.7856202102E+00   4.1675352328E+01
  1.4961245103E+01   7.8726218420E+00   4.5811734737E+01
  1.9087757435E+01   7.5547638470E+00   5.0149859987E+01
  5.3293608978E+01   1.1056247480E+01   3.4117554501E+01
  4.0518168691E+00   1.1629680043E+01   3.8069962416E+01
  7.0472760482E+00   1.1551719397E+01   4.2056171144E+01
  1.1491096694E+01   1.0954391059E+01   4.6126660648E+01
  1.5855416624E+01   1.1661128765E+01   4.9328375046E+01
  5.3123465411E+01   1.5892656909E+01   3.8317305858E+01
  3.7206481567E+00   1.5554429092E+01   4.2421396554E+01
  7.7619028630E+00   1.5699849164E+01   4.5382719953E+01
  1.1494386386E+01   1.4801985774E+01   4.9134731051E+01
  5.3368181410E+01   1.9159341491E+01   4.2253570167E+01
  4.1438906125E+00   1.9142943314E+01   4.5646146288E+01
  7.9056678621E+00   1.8777067420E+01   4.9606148544E+01
  2.5372758305E-01   2.3012081374E+01   4.6119892887E+01
  4.2181622207E+00   2.2836040559E+01   4.9707892634E+01
  5.3366779375E+01   2.7216680330E+01   4.9615547290E+01
  5.3475131643E+01   1.0777570441E-01   1.5080070510E+01
  3.4168963920E+00   5.3515237923E+01   1.8910337464E+01
  7.5642894233E+00   5.3156205405E+01   2.2436568389E+01
  1.1444459457E+01   3.4090175452E-01   2.6973313419E+01
  1.5619568300E+01   5.3337440828E+01   3.0586542229E+01
  1.8611545273E+01   5.3276503464E+01   3.4638727752E+01
  2.3131574062E+01   5.3400886591E+01   3.8639596900E+01
  2.6755613120E+01   5.3286360774E+01   4.2334606979E+01
  3.1042006327E+01   5.3338555558E+01   4.5757016579E+01
  3.4402164280E+01   5.3082074489E+01   4.9506253484E+01
  3.1213258277E-01   3.8994970881E+00   1.8595365279E+01
  3.7423944752E+00   3.6590836602E+00   2.3511010548E+01
  8.1917469701E+00   3.8595590586E+00   2.6981533282E+01
  1.1489405837E+01   3.7473579712E+00   3.0843173683E+01
  1.5094730279E+01   4.0412205859E+00   3.4227355247E+01
  1.8871017328E+01   3.4591852978E+00   3.7883751779E+01
  2.2981732515E+01   3.6788176396E+00   4.1941460607E+01
  2.7340296648E+01   3.3833909336E+00   4.5602107459E+01
  3.0808447515E+01   3.8737774505E+00   4.9559400549E+01
  8.1502914185E-02   8.0776773115E+00   2.2406205326E+01
  3.5271202227E+00   8.1505352535E+00   2.6325089248E+01
  7.9587830741E+00   7.4123136968E+00   3.0582645172E+01
  1.1386789732E+01   7.5833241502E+00   3.4234043117E+01
  1.5557286852E+01   7.0837840874E+00   3.8313538917E+01
  1.9184843636E+01   6.9233666442E+00   4.2524508145E+01
  2.2778501611E+01   7.2632151218E+00   4.5808051414E+01
  2.7002046426E+01   7.4579981667E+00   5.0004599209E+01
  3.6355476340E-02   1.1314503044E+01   2.7009427148E+01
  3.7581239103E+00   1.1380574194E+01   3.0903218708E+01
  7.5243735742E+00   1.1226382890E+01   3.4279765865E+01
  1.1430743708E+01   1.1345471139E+01   3.8739730637E+01
  1.5564974959E+01   1.1164496646E+01   4.2423064298E+01
  1.9723792457E+01   1.1494864222E+01   4.5684435333E+01
  2.2436654436E+01   1.1225290425E+01   5.0130237600E+01
  1.8675025636E-01   1.5677097581E+01   3.0011229794E+01
  3.8885182267E+00   1.5580390208E+01   3.3864336869E+01
  7.2469870043E+00   1.5675919777E+01   3.8227213500E+01
  1.2026792034E+01   1.5415538980E+01   4.2714591962E+01
  1.5523779979E+01   1.5388759438E+01   4.5918948174E+01
  1.9586077400E+01   1.5302008336E+01   4.9420035717E+01
  5.3143487369E+01   1.9413817625E+01   3.4489786780E+01
  3.2641126740E+00   1.9241326002E+01   3.7927024187E+01
  7.9875321315E+00   1.9638148552E+01   4.1965051877E+01
  1.1823240678E+01   1.8900323840E+01   4.6455384285E+01
  1.4807035547E+01   1.9544181231E+01   5.0196792866E+01
  1.6215611767E-01   2.3463504500E+01   3.8034267999E+01
  3.9682105207E+00   2.2671915233E+01   4.2207804552E+01
  8.0730494110E+00   2.2965286790E+01   4.6173727754E+01
  1.1410779441E+01   2.3078916308E+01   4.9809254160E+01
  5.3508042716E+01   2.6529397839E+01   4.2068594139E+01
  3.2138555853E+00   2.6908384146E+01   4.5897754371E+01
  7.0755125620E+00   2.6898228513E+01   5.0033636225E+01
  5.3108033210E+01   3.0863708816E+01   4.6227618147E+01
  3.8738021015E+00   3.0701112539E+01   4.9957865575E+01
  5.3517687555E+01   3.4689200634E+01   4.9973735792E+01
  1.0361398479E-01   9.2184425968E-02   7.3944899471E+00
  3.7711217140E+00   5.3472423158E+01   1.1240210235E+01
  7.8518455150E+00   4.3408259020E-01   1.5384544145E+01
  1.1293658019E+01   5.3221819236E+01   1.9085808477E+01
  1.5357631000E+01   5.3463089422E+01   2.2965773845E+01
  1.9473314363E+01   1.0536156549E-01   2.6711528139E+01
  2.3566643450E+01   5.3387768695E+01   3.0965219917E+01
  2.6855868346E+01   5.2971910723E+01   3.4569047992E+01
  3.0167871683E+01   5.3329026766E+01   3.8287818450E+01
  3.4762028028E+01   5.3480105328E+01   4.1943904155E+01
  3.8196210556E+01   4.7545943097E-01   4.6071936822E+01
  4.2493890750E+01   5.3157097100E+01   5.0346163990E+01
  3.9573244705E-02   3.8621865962E+00   1.1364371415E+01
  4.0758686207E+00   3.4704719043E+00   1.5250040432E+01
  7.4457438969E+00   3.8764824050E+00   1.9161732306E+01
  1.1728272206E+01   4.2898257548E+00   2.2890692799E+01
  1.5173500939E+01   3.6704796832E+00   2.6923844967E+01
  1.8723229969E+01   3.7323549705E+00   3.0783823666E+01
  2.2807869852E+01   3.4521760005E+00   3.4721389260E+01
  2.6350396532E+01   3.7545766779E+00   3.8466256504E+01
  3.0568924739E+01   3.4517415875E+00   4.1894446712E+01
  3.4478349847E+01   3.8473493620E+00   4.5901013618E+01
  3.8432635780E+01   4.2361432905E+00   4.9374320075E+01
  5.3445270242E+01   7.6662986210E+00   1.5186935341E+01
  3.5453003375E+00   7.9810283107E+00   1.9307520932E+01
  7.2582367378E+00   7.8131764222E+00   2.2938007878E+01
  1.1990640852E+01   7.5692340995E+00   2.7116487601E+01
  1.5612109376E+01   7.3424738985E+00   3.0554898331E+01
  1.8826952250E+01   7.7805788545E+00   3.4308918579E+01
  2.2706741376E+01   7.5767429931E+00   3.8156414086E+01
  2.7042495511E+01   7.2087968015E+00   4.1643836453E+01
  3.0176639855E+01   7.3152634654E+00   4.5719140671E+01
  3.4528163188E+01   7.1642043567E+00   4.9735522585E+01
  8.3325696364E-02   1.1611587735E+01   1.8659746006E+01
  4.0698960064E+00   1.1723350812E+01   2.2533958971E+01
  7.4034141693E+00   1.1339000947E+01   2.6343194694E+01
  1.1712994441E+01   1.1730420479E+01   3.0736395089E+01
  1.5170713459E+01   1.1081218833E+01   3.4973096114E+01
  1.9608810060E+01   1.1389854756E+01   3.8172171078E+01
  2.2846312589E+01   1.1011860174E+01   4.1626207904E+01
  2.5983779006E+01   1.1182203001E+01   4.5852224484E+01
  3.0158636093E+01   1.1403648737E+01   4.9529274130E+01
  5.3514594145E+01   1.5659416811E+01   2.2308727499E+01
  4.0944263158E+00   1.4861532811E+01   2.6723994889E+01
  7.6638267599E+00   1.5635300933E+01   3.0771840522E+01
  1.1245360489E+01   1.5190133750E+01   3.4304833574E+01
  1.5720510789E+01   1.4654049829E+01   3.8002939371E+01
  1.9208767131E+01   1.5338485899E+01   4.2119182236E+01
  2.3083136595E+01   1.5564160566E+01   4.5820263997E+01
  2.6667994853E+01   1.5503193903E+01   4.9884244178E+01
  3.8051747092E-01   1.9124930382E+01   2.6760448579E+01
  3.8463249724E+00   1.8854338990E+01   3.0556068921E+01
  7.2304103873E+00   1.9422414725E+01   3.4423986282E+01
  1.1133800204E+01   1.9142345209E+01   3.7978662222E+01
  1.4937579708E+01   1.9455322602E+01   4.1816608792E+01
  1.9035808836E+01   1.9484916422E+01   4.6171783449E+01
  2.2808291197E+01   1.9270775460E+01   4.9842216306E+01
  2.1064486438E-01   2.3345198466E+01   3.0292402565E+01
  3.2734384699E+00   2.3010583748E+01   3.4173233854E+01
  7.5265181213E+00   2.3089600148E+01   3.7798213440E+01
  1.1758977930E+01   2.2851205910E+01   4.1800137127E+01
  1.4958293696E+01   2.3157521175E+01   4.6030018832E+01
  1.8973676625E+01   2.3231967971E+01   5.0030615848E+01
  5.3382283884E+01   2.6994251320E+01   3.4557943940E+01
  3.8764442646E+00   2.7096451644E+01   3.8110594235E+01
  7.3474656876E+00   2.6546892700E+01   4.1842903743E+01
  1.0881764187E+01   2.7162166150E+01   4.6209381753E+01
  1.5367175777E+01   2.6556561247E+01   4.9368928307E+01
  2.8263491197E-01   3.0237559961E+01   3.8206303548E+01
  4.1082863400E+00   3.1079993263E+01   4.2471193527E+01
  7.7871777640E+00   3.0849407842E+01   4.5955439488E+01
  1.1096041354E+01   3.0498113356E+01   4.9692985744E+01
  5.3229106966E+01   3.4629389175E+01   4.1714292094E+01
  4.3147789235E+00   3.4585453036E+01   4.6055815897E+01
  7.9809846334E+00   3.4329181813E+01   4.9644319218E+01
  4.0709462923E-01   3.7819655750E+01   4.5512936335E+01
  3.8428595567E+00   3.8060431877E+01   5.0077103673E+01
  2.1921504452E-01   4.1627064459E+01   4.9534734192E+01
  2.2073231853E-01   3.0173065418E-01   1.1154273677E-01
  3.8015232559E+00   5.3358032048E+01   4.2017646061E+00
  7.3253319540E+00   7.2362986495E-02   8.0144553578E+00
  1.1319852349E+01   5.3259102819E+01   1.1376925163E+01
  1.5357222072E+01   5.3444350960E+01   1.5250269511E+01
  1.9618416325E+01   1.4675109686E-01   1.8684278245E+01
  2.3300980323E+01   1.1487361501E-01   2.2773156716E+01
  2.6777410837E+01   5.3123229342E+01   2.6935025977E+01
  3.0903016994E+01   5.3335203490E+01   3.0554537328E+01
  3.3922725013E+01   5.3448676640E+01   3.4562946685E+01
  3.7969582097E+01   5.3431496356E+01   3.7834194801E+01
  4.1782959660E+01   3.5003994703E-01   4.1595779252E+01
  4.5970249909E+01   4.1185852377E-01   4.5353465822E+01
  4.8996069503E+01   8.4926572034E-02   4.9872079440E+01
  2.4643062937E-01   3.8018752483E+00   4.1296831327E+00
  4.3390522410E+00   3.8005211500E+00   7.4779109846E+00
  7.3278015805E+00   4.2563979803E+00   1.1155036141E+01
  1.1496390229E+01   3.7231833132E+00   1.5615018559E+01
  1.5084363039E+01   3.4376671654E+00   1.8689708775E+01
  1.8557557705E+01   3.9490383932E+00   2.3119909493E+01
  2.3486285798E+01   3.7157493751E+00   2.7253912125E+01
  2.6810521247E+01   3.8001640629E+00   3.0339472984E+01
  3.0683285440E+01   3.5757992794E+00   3.4424557554E+01
  3.4497557214E+01   3.9243836482E+00   3.8232586487E+01
  3.8487689233E+01   4.3003319582E+00   4.2232882295E+01
  4.2289432091E+01   3.1307594615E+00   4.6536534237E+01
  4.5873540220E+01   3.9674153699E+00   4.9816853349E+01
  6.9861931617E-02   7.9398046502E+00   7.8007930822E+00
  3.5142417863E+00   7.8878798412E+00   1.1108251734E+01
  7.9773796892E+00   7.4249292881E+00   1.5394067920E+01
  1.1502396835E+01   7.9903694752E+00   1.9026499769E+01
  1.5531132414E+01   7.6068096953E+00   2.2671166366E+01
  1.8907107045E+01   7.7326761155E+00   2.6896054376E+01
  2.2671327845E+01   7.3916491330E+00   3.0562685620E+01
  2.6579269396E+01   7.4338381555E+00   3.4234441973E+01
  3.0721835236E+01   8.0165558017E+00   3.8050417133E+01
  3.4696650453E+01   8.0399235330E+00   4.1660314401E+01
  3.8074865672E+01   7.4195741551E+00   4.5590438586E+01
  4.2394900404E+01   7.4770667289E+00   4.9549911784E+01
  8.1923755214E-02   1.1695995393E+01   1.1463656817E+01
  3.7971443628E+00   1.1082373921E+01   1.5465362572E+01
  7.7365622268E+00   1.1337341058E+01   1.9385023049E+01
  1.1533203859E+01   1.1034510086E+01   2.2811200288E+01
  1.4948563953E+01   1.1415231124E+01   2.7116155040E+01
  1.9100453280E+01   1.1605655157E+01   3.0353427473E+01
  2.3088685961E+01   1.2112092230E+01   3.4559534591E+01
  2.7387800678E+01   1.1875980158E+01   3.8457285445E+01
  3.0433322109E+01   1.1324442251E+01   4.2402518354E+01
  3.4514038144E+01   1.1278134122E+01   4.6191337667E+01
  3.8366399788E+01   1.1349081235E+01   4.9172415197E+01
  3.2696057664E-01   1.5871704392E+01   1.5159018087E+01
  4.2372293336E+00   1.5268706375E+01   1.8887453663E+01
  8.0059432396E+00   1.5526359632E+01   2.2625143989E+01
  1.1720725345E+01   1.5015333006E+01   2.6930861451E+01
  1.5371424506E+01   1.5611644836E+01   3.0091818692E+01
  1.8833769177E+01   1.5512427747E+01   3.4393859118E+01
  2.3050929503E+01   1.4931383618E+01   3.8816652200E+01
  2.6800868566E+01   1.4921940061E+01   4.2922743127E+01
  3.0895069601E+01   1.5540117738E+01   4.5909141241E+01
  3.4774349417E+01   1.5597262019E+01   4.9666966836E+01
  9.1154720220E-02   1.9516699158E+01   1.8769510956E+01
  3.9997950054E+00   1.8714539925E+01   2.3390677932E+01
  7.3862544663E+00   1.9411157538E+01   2.6883822665E+01
  1.1845793029E+01   1.9212292569E+01   3.0635390376E+01
  1.5069691882E+01   1.9143513723E+01   3.4115453815E+01
  1.8918108348E+01   1.9067590912E+01   3.8753378179E+01
  2.3146815877E+01   1.8902364072E+01   4.2533407340E+01
  2.6546432696E+01   1.9012292589E+01   4.6008319812E+01
  3.0757376428E+01   1.9256855298E+01   4.9873469322E+01
  1.0443653005E-01   2.3417636285E+01   2.2789873072E+01
  3.8999971139E+00   2.3408590463E+01   2.6929471107E+01
  7.8774567345E+00   2.2914954375E+01   3.0397050461E+01
  1.1619128153E+01   2.2877065766E+01   3.4370351953E+01
  1.5291096821E+01   2.3307686683E+01   3.7665422658E+01
  1.9174062629E+01   2.3264547062E+01   4.2141753571E+01
  2.2593065465E+01   2.2813901694E+01   4.5856612505E+01
  2.6861769379E+01   2.2906095061E+01   4.9436673266E+01
  5.3451268708E+01   2.6954885218E+01   2.7102783927E+01
  4.4014924741E+00   2.7169784882E+01   3.0309396614E+01
  7.9191366153E+00   2.7268340479E+01   3.4663031471E+01
  1.1102147185E+01   2.6213384833E+01   3.8134308936E+01
  1.4843036752E+01   2.6846098641E+01   4.2334283475E+01
  1.9146159114E+01   2.6731335636E+01   4.6397315643E+01
  2.2976155905E+01   2.6958164238E+01   4.9454914830E+01
  3.9577404229E-01   3.0520732476E+01   3.0868996512E+01
  4.2004657764E+00   3.1005563954E+01   3.4603689333E+01
  8.0956256087E+00   3.0790405553E+01   3.8125503583E+01
  1.1462790442E+01   3.0414609379E+01   4.2112019287E+01
  1.5431366056E+01   3.0994987808E+01   4.5834099196E+01
  1.9146883505E+01   3.0991643561E+01   4.9940936040E+01
  2.0395385570E-02   3.4359155206E+01   3.4285081030E+01
  4.1949936988E+00   3.4137706051E+01   3.8300628196E+01
  7.2366812370E+00   3.4926101282E+01   4.1867527415E+01
  1.1554694384E+01   3.4802192698E+01   4.6169106339E+01
  1.4737192400E+01   3.4644766590E+01   5.0169801301E+01
  1.9003559757E-01   3.8296271782E+01   3.7584963914E+01
  3.4502863503E+00   3.8756825335E+01   4.1892855177E+01
  7.7569077270E+00   3.8065967664E+01   4.6067997984E+01
  1.1861336777E+01   3.8531559919E+01   4.9688755723E+01
  9.7781144196E-02   4.2294557850E+01   4.1887770805E+01
  4.0000969992E+00   4.2262041490E+01   4.5581486138E+01
  7.5780045711E+00   4.1715280598E+01   5.0059891367E+01
  7.7625268482E-02   4.6219369465E+01   4.5244892697E+01
  3.8588199764E+00   4.6338578943E+01   4.9185482947E+01
  5.3342469358E+01   4.9854040406E+01   5.0088634732E+01
  7.7165718323E+00   5.2963038767E+01   2.2860159364E-01
  1.1287109332E+01   5.3158418657E+01   3.8909492824E+00
  1.5747764095E+01   5.3347341168E+01   7.5082867142E+00
  1.9752288729E+01   5.2972302326E+01   1.1449526329E+01
  2.2826300523E+01   5.3353323472E+01   1.5431172636E+01
  2.6820905962E+01   1.4341362790E-01   1.8753537072E+01
  3.0373535583E+01   5.2889788955E+01   2.3150217084E+01
  3.4376218860E+01   5.3250637494E+01   2.6849717532E+01
  3.8820840436E+01   2.8984397597E-01   3.0625063687E+01
  4.1774544886E+01   1.9605174975E-01   3.4703113307E+01
  4.5779906313E+01   2.8245496124E-01   3.7887883706E+01
  5.0111380088E+01   4.0069009863E-01   4.2383717112E+01
  3.8475032139E+00   3.1676483991E+00   1.5373111606E-01
  7.9060659281E+00   4.0036576397E+00   3.8996979539E+00
  1.1354682608E+01   3.6230001705E+00   7.3528783642E+00
  1.4958652979E+01   3.9820624742E+00   1.1485830591E+01
  1.8934167434E+01   4.1462036707E+00   1.5218603492E+01
  2.2673547663E+01   4.1095866948E+00   1.8979613276E+01
  2.6395860756E+01   3.8158955550E+00   2.2651287164E+01
  3.0784823565E+01   3.9822537505E+00   2.6838640293E+01
  3.4653015665E+01   3.5648182974E+00   3.0337609565E+01
  3.8390072872E+01   4.0232477931E+00   3.4488778512E+01
  4.1996896927E+01   4.0004451530E+00   3.8375168433E+01
  4.5867188785E+01   4.2416432648E+00   4.2074351865E+01
  4.9516040277E+01   3.6167584196E+00   4.6346874202E+01
  4.2895752543E-02   7.9409940575E+00   5.9767555869E-02
  3.9281093777E+00   7.4891707890E+00   3.9738223109E+00
  7.5226080801E+00   8.0066939975E+00   7.9733769085E+00
  1.1433359379E+01   7.2030325968E+00   1.1641002751E+01
  1.5367345986E+01   7.6590885712E+00   1.5108271918E+01
  1.9332767116E+01   7.5120708223E+00   1.8961173829E+01
  2.3104131493E+01   7.2070994486E+00   2.3440930480E+01
  2.6972275064E+01   7.7960225280E+00   2.7280568754E+01
  3.0955317950E+01   7.9157662617E+00   3.0569625487E+01
  3.4818185012E+01   7.2318127467E+00   3.4450977820E+01
  3.8486358095E+01   8.2191662397E+00   3.8009558104E+01
  4.1882395067E+01   7.5774377664E+00   4.1886125389E+01
  4.6112515475E+01   7.8317098000E+00   4.5932397936E+01
  4.9970018668E+01   7.6082257382E+00   4.9767000155E+01
  1.4571305455E-01   1.1603110535E+01   3.4447163755E+00
  4.2103084535E+00   1.1833878308E+01   7.0338293726E+00
  7.2893795637E+00   1.1124341807E+01   1.1863893655E+01
  1.1758769613E+01   1.1525558620E+01   1.5685906021E+01
  1.5296962464E+01   1.1755150290E+01   1.9059648078E+01
  1.8945290550E+01   1.1099715295E+01   2.2666464263E+01
  2.2766374484E+01   1.1325406230E+01   2.6641634698E+01
  2.6993291150E+01   1.1538703091E+01   3.0987030488E+01
  3.0707307932E+01   1.1458304666E+01   3.4716763081E+01
  3.4767778937E+01   1.1763271131E+01   3.8136822238E+01
  3.8045795144E+01   1.1321300421E+01   4.1811606111E+01
  4.2074702218E+01   1.1400236590E+01   4.5972869298E+01
  4.6137498479E+01   1.1991039002E+01   4.9186271687E+01
  1.0161429208E-01   1.5664131364E+01   7.1336957041E+00
  3.5832423034E+00   1.5286275641E+01   1.1086052172E+01
  8.5173922810E+00   1.5874554770E+01   1.5712269996E+01
  1.1667953288E+01   1.5515320652E+01   1.9430072248E+01
  1.5500277190E+01   1.5824898596E+01   2.2881458225E+01
  1.9064299354E+01   1.5253817301E+01   2.6970394143E+01
  2.3593607051E+01   1.5154237651E+01   3.0536857927E+01
  2.6728596817E+01   1.5222125049E+01   3.4530012419E+01
  3.0791059458E+01   1.5821648377E+01   3.7772512992E+01
  3.4067662931E+01   1.5292470474E+01   4.2214006269E+01
  3.8204407272E+01   1.5452758971E+01   4.5698698154E+01
  4.1831588718E+01   1.5229338025E+01   4.9775981931E+01
  5.3425088693E+01   1.9323275717E+01   1.1694957688E+01
  4.2546216587E+00   1.8931141930E+01   1.4891917852E+01
  6.8816722964E+00   1.9394810480E+01   1.9463512887E+01
  1.1489904451E+01   1.9516757713E+01   2.3304317638E+01
  1.5616091610E+01   1.9491466253E+01   2.6696595625E+01
  1.9562426657E+01   1.9401381179E+01   3.0814630521E+01
  2.2913059023E+01   1.8924338994E+01   3.4917186941E+01
  2.6399232443E+01   1.9348912573E+01   3.8271342150E+01
  3.0478440269E+01   1.9131679893E+01   4.2123793287E+01
  3.4193881314E+01   1.9249308755E+01   4.5551573672E+01
  3.8724510871E+01   1.9303925079E+01   4.9975505295E+01
  5.3274755617E+01   2.2960605090E+01   1.5404543766E+01
  3.7348505135E+00   2.2791923537E+01   1.8598441919E+01
  7.4534539233E+00   2.2749429082E+01   2.3499445689E+01
  1.1702166126E+01   2.2382742676E+01   2.7177772677E+01
  1.5154935197E+01   2.2947741906E+01   3.0413254040E+01
  1.8637831344E+01   2.2974266134E+01   3.3939363257E+01
  2.2765269062E+01   2.3154025288E+01   3.7877466663E+01
  2.6657710137E+01   2.2580883045E+01   4.2070404613E+01
  3.1226223948E+01   2.3114517344E+01   4.5425896592E+01
  3.4343264202E+01   2.2934740599E+01   5.0060761354E+01
  5.3215378490E+01   2.6628778441E+01   1.9352778611E+01
  3.9458820617E+00   2.6542339496E+01   2.3242488663E+01
  8.0527690162E+00   2.6633367918E+01   2.7061645850E+01
  1.1634256919E+01   2.6296795119E+01   3.0637296313E+01
  1.5524370494E+01   2.6920333821E+01   3.4293255995E+01
  1.9047361834E+01   2.6511889822E+01   3.8335439108E+01
  2.3148694666E+01   2.6842205365E+01   4.2356541659E+01
  2.7000276700E+01   2.6711365870E+01   4.5957640188E+01
  3.0829846912E+01   2.6531163728E+01   4.9651311136E+01
  5.3077030863E+01   3.0833694108E+01   2.2948974233E+01
  4.0063777312E+00   3.0704639815E+01   2.6770832564E+01
  7.6761398349E+00   3.0860470972E+01   3.0612089407E+01
  1.2040931577E+01   3.0560187635E+01   3.4240401482E+01
  1.4974407845E+01   3.0782845811E+01   3.7956100196E+01
  1.8958051881E+01   3.0739263076E+01   4.1965573831E+01
  2.2649335323E+01   3.1053327888E+01   4.5817657892E+01
  2.6745065019E+01   3.0747352770E+01   4.9782164986E+01
  5.3044453232E+01   3.4580820308E+01   2.6841888048E+01
  3.8639865569E+00   3.4358728579E+01   3.0246262755E+01
  8.1541427891E+00   3.4504913432E+01   3.4844943432E+01
  1.1628061117E+01   3.4617275589E+01   3.8596556936E+01
  1.5363282608E+01   3.4503111667E+01   4.2025539871E+01
  1.9114630659E+01   3.4935999809E+01   4.5788381047E+01
  2.3317295189E+01   3.4186289558E+01   4.9678171199E+01
  5.3516846749E+01   3.8606176591E+01   3.0578859955E+01
  4.0149283472E+00   3.8187471682E+01   3.4454704461E+01
  7.7381078277E+00   3.8492454610E+01   3.8408280069E+01
  1.1145310757E+01   3.8677199989E+01   4.2323202583E+01
  1.4779564936E+01   3.8512317695E+01   4.5765803727E+01
  1.8858938735E+01   3.8726143882E+01   4.9510552046E+01
  5.2986605135E+01   4.1844638181E+01   3.4159725222E+01
  3.5831411921E+00   4.2222273076E+01   3.8370165959E+01
  7.6581744186E+00   4.2215258508E+01   4.2086369324E+01
  1.0951019091E+01   4.2327781474E+01   4.6106788239E+01
  1.5617589930E+01   4.2027025596E+01   4.9739194415E+01
  5.3458073898E+01   4.6267236404E+01   3.8012585724E+01
  4.0620426946E+00   4.5939373950E+01   4.1684836676E+01
  7.3821052835E+00   4.5916030736E+01   4.5626504791E+01
  1.1562642553E+01   4.6094224374E+01   4.9827340474E+01
  5.3450860442E+01   5.0075874402E+01   4.1958151995E+01
  3.7204617560E+00   5.0178056693E+01   4.5996115185E+01
  7.7919058893E+00   4.9467462507E+01   4.9662536673E+01
  1.5065761095E+01   4.7674387739E-02   5.3438986592E+01
  1.9742696280E+01   5.3131801128E+01   3.7893660516E+00
  2.2745059685E+01   5.3353628685E+01   7.5746360474E+00
  2.7004814998E+01   1.3387529066E-01   1.1735358935E+01
  3.0423365804E+01   2.2206582978E-01   1.5690041519E+01
  3.4343255138E+01   5.3415133193E+01   1.9246017202E+01
  3.7885945137E+01   5.3244060529E+01   2.3024793810E+01
  4.2332881849E+01   5.3541853275E+01   2.6364441990E+01
  4.5468518424E+01   5.3484660676E+01   3.0638591663E+01
  5.0491341829E+01   8.0086819817E-02   3.4383049135E+01
  1.1746689332E+01   3.9943017251E+00   5.3049283121E+01
  1.5410191075E+01   3.3602830356E+00   3.6449684346E+00
  1.9479794118E+01   3.7263038022E+00   7.2179931990E+00
  2.2414156843E+01   3.7355893543E+00   1.2052875208E+01
  2.6680309940E+01   3.9366008823E+00   1.5660812529E+01
  3.0256903158E+01   4.2230505722E+00   1.8657213832E+01
  3.4547168386E+01   3.2244711182E+00   2.3711959656E+01
  3.8424706278E+01   3.5988201665E+00   2.6962094713E+01
  4.2375555789E+01   3.4313600625E+00   3.1052950031E+01
  4.5582545839E+01   3.8317013941E+00   3.4440192130E+01
  4.9750111660E+01   4.0995178620E+00   3.8493252819E+01
  8.0973523303E+00   7.2271287536E+00   5.3382802503E+01
  1.1211244542E+01   8.0517268853E+00   3.4794713701E+00
  1.4890480149E+01   7.6182981242E+00   7.7723181755E+00
  1.8637551549E+01   7.1632961465E+00   1.0738569316E+01
  2.2764000924E+01   8.0210780958E+00   1.5054013112E+01
  2.6814741241E+01   7.6385582471E+00   1.9378434465E+01
  3.0238867619E+01   7.7477534940E+00   2.3209912948E+01
  3.4462851112E+01   7.6255044789E+00   2.7107548747E+01
  3.8432054509E+01   7.4149586835E+00   3.0740150522E+01
  4.2074182325E+01   7.5689938659E+00   3.4605013980E+01
  4.6346800818E+01   7.6522610119E+00   3.8275823043E+01
  4.9425972906E+01   7.8986883453E+00   4.1919883107E+01
  3.8270842690E+00   1.1506787778E+01   5.3245937987E+01
  7.4708917315E+00   1.1490069071E+01   3.7651689639E+00
  1.1368696807E+01   1.1448528044E+01   7.8531508463E+00
  1.5071320707E+01   1.1572219425E+01   1.1322422601E+01
  1.8970759716E+01   1.1644237128E+01   1.5658955570E+01
  2.2929787401E+01   1.1345752486E+01   1.8671760341E+01
  2.7052851542E+01   1.1235139831E+01   2.2797192530E+01
  3.0253750621E+01   1.2228393328E+01   2.6710854138E+01
  3.4429097497E+01   1.1763649446E+01   3.0639228463E+01
  3.8666809946E+01   1.1378456543E+01   3.3688367698E+01
  4.1995149663E+01   1.1847462494E+01   3.8013103385E+01
  4.6098644473E+01   1.1868526327E+01   4.1656838209E+01
  4.9604443158E+01   1.1479251542E+01   4.5697107324E+01
  2.0397148628E-01   1.5378622099E+01   5.3338640181E+01
  4.1280931029E+00   1.5766177177E+01   4.0092459464E+00
  7.7905613154E+00   1.5133715558E+01   7.8675520623E+00
  1.1313844492E+01   1.4867512726E+01   1.1789165998E+01
  1.5875016730E+01   1.5070531204E+01   1.4921424259E+01
  1.8974508805E+01   1.5512500156E+01   1.8885021869E+01
  2.2379073170E+01   1.4819842022E+01   2.2722851131E+01
  2.6498224382E+01   1.5014105085E+01   2.6602119104E+01
  3.0159839393E+01   1.5436898129E+01   3.1153993599E+01
  3.4492226851E+01   1.5291259912E+01   3.4538987693E+01
  3.8800837547E+01   1.5931540476E+01   3.8167988162E+01
  4.1812327467E+01   1.4852194067E+01   4.2049702891E+01
  4.5861523029E+01   1.5239924128E+01   4.5780841051E+01
  4.9400500148E+01   1.5538184627E+01   5.0011432841E+01
  3.0799837892E-01   1.9152967657E+01   3.4931132629E+00
  4.4817694773E+00   1.8837215231E+01   7.5543851109E+00
  7.9842502688E+00   1.9212428427E+01   1.1827529223E+01
  1.1823363740E+01   1.9565545628E+01   1.5125880546E+01
  1.5274186375E+01   1.9281748358E+01   1.9295258020E+01
  1.8979605945E+01   1.9315444702E+01   2.2724342005E+01
  2.2860884205E+01   1.9104198277E+01   2.7085452561E+01
  2.6734274850E+01   1.9040351878E+01   3.0852461491E+01
  3.0108219882E+01   1.8971141632E+01   3.4337919939E+01
  3.4628758606E+01   1.9225081906E+01   3.7806938514E+01
  3.8069170801E+01   1.9071114746E+01   4.2226921186E+01
  4.2091443699E+01   1.9307121201E+01   4.5772080218E+01
  4.5585330571E+01   1.9189791468E+01   4.9641684010E+01
  1.5413456293E-01   2.3289402614E+01   8.0545130690E+00
  3.7387492119E+00   2.2821926947E+01   1.1549204247E+01
  7.7100415474E+00   2.2910749486E+01   1.5559494722E+01
  1.1219662774E+01   2.2940063929E+01   1.9197914235E+01
  1.4987558644E+01   2.2996432852E+01   2.2662109650E+01
  1.8976183440E+01   2.3103268338E+01   2.7048097599E+01
  2.3086466520E+01   2.2902506629E+01   3.0804719126E+01
  2.7173370045E+01   2.3126612861E+01   3.4955118646E+01
  3.0415317258E+01   2.3386506517E+01   3.8425769137E+01
  3.4305627647E+01   2.2926194914E+01   4.1864217141E+01
  3.8186700831E+01   2.2750421068E+01   4.5534484524E+01
  4.2294650254E+01   2.3241340452E+01   4.9554066110E+01
  3.3482437365E-01   2.6403382653E+01   1.1981264622E+01
  3.7394410915E+00   2.6632353276E+01   1.5335216225E+01
  7.8279806649E+00   2.6386560841E+01   1.9306748743E+01
  1.1886999864E+01   2.7204426094E+01   2.3298983017E+01
  1.5406415150E+01   2.6340243670E+01   2.6702647608E+01