
     Program PWSCF v.7.0 starts on  2Dec2022 at 18: 2:19 

     This program is part of the open-source Quantum ESPRESSO suite
     for quantum simulation of materials; please cite
         "P. Giannozzi et al., J. Phys.:Condens. Matter 21 395502 (2009);
         "P. Giannozzi et al., J. Phys.:Condens. Matter 29 465901 (2017);
         "P. Giannozzi et al., J. Chem. Phys. 152 154105 (2020);
          URL http://www.quantum-espresso.org", 
     in publications or presentations arising from this work. More details at
     http://www.quantum-espresso.org/quote

     Parallel version (MPI), running on   120 processors

     MPI processes distributed on     5 nodes
     R & G space division:  proc/nbgrp/npool/nimage =     120
     376233 MiB available memory on the printing compute node when the environment starts

     Reading input from pw.inp
Warning: card &CELL ignored
Warning: card / ignored

     Current dimensions of program PWSCF are:
     Max number of different atomic species (ntypx) = 10
     Max number of k-points (npk) =  40000
     Max angular momentum in pseudopotentials (lmaxx) =  4
     Message from routine cell_base_init:
     DEPRECATED: use true lattice parameter, not A to a.u. conversion factor

     IMPORTANT: XC functional enforced from input :
     Exchange-correlation= HSE
                           (   1   4  12   4   0   0   0)
     EXX-fraction              =        0.25
     Any further DFT definition will be discarded
     Please, verify this is what you really want

     Message from routine setup :
     BEWARE: nonlinear core correction is not consistent with hybrid XC
     EXX: q-point mesh:     6    6    1
     EXX: setup a grid of 36 q-points centered on each k-point
     (k+q)-points:
   0.0000000   0.0000000   0.0000000         1    1
   0.0000000   0.0297218   0.0000000         2    1
   0.0000000   0.0594436   0.0000000         3    1
   0.0000000  -0.0891654   0.0000000         4    1
  -0.0000000  -0.0594436  -0.0000000         3   -1
  -0.0000000  -0.0297218  -0.0000000         2   -1
   0.0190219   0.0000000   0.0000000         5    1
   0.0190219   0.0297218   0.0000000         6    1
   0.0190219   0.0594436   0.0000000         7    1
   0.0190219  -0.0891654   0.0000000         8    1
   0.0190219  -0.0594436   0.0000000         9    1
   0.0190219  -0.0297218   0.0000000        10    1
   0.0380437   0.0000000   0.0000000        11    1
   0.0380437   0.0297218   0.0000000        12    1
   0.0380437   0.0594436   0.0000000        13    1
   0.0380437  -0.0891654   0.0000000        14    1
   0.0380437  -0.0594436   0.0000000        15    1
   0.0380437  -0.0297218   0.0000000        16    1
  -0.0570656   0.0000000   0.0000000        17    1
  -0.0570656   0.0297218   0.0000000        18    1
  -0.0570656   0.0594436   0.0000000        19    1
  -0.0570656  -0.0891654   0.0000000        20    1
   0.0570656  -0.0594436   0.0000000        19   -1
   0.0570656  -0.0297218   0.0000000        18   -1
  -0.0380437  -0.0000000  -0.0000000        11   -1
  -0.0380437   0.0297218   0.0000000        16   -1
  -0.0380437   0.0594436   0.0000000        15   -1
  -0.0380437   0.0891654   0.0000000        14   -1
  -0.0380437  -0.0594436  -0.0000000        13   -1
  -0.0380437  -0.0297218  -0.0000000        12   -1
  -0.0190219  -0.0000000  -0.0000000         5   -1
  -0.0190219   0.0297218   0.0000000        10   -1
  -0.0190219   0.0594436   0.0000000         9   -1
  -0.0190219   0.0891654   0.0000000         8   -1
  -0.0190219  -0.0594436  -0.0000000         7   -1
  -0.0190219  -0.0297218  -0.0000000         6   -1

     Subspace diagonalization in iterative solution of the eigenvalue problem:
     one sub-group per band group will be used
     scalapack distributed-memory algorithm (size of sub-group: 10* 10 procs)


     Parallelization info
     --------------------
     sticks:   dense  smooth     PW     G-vecs:    dense   smooth      PW
     Min           9       9      2                 1869     1869     254
     Max          10      10      3                 1928     1928     327
     Sum        1175    1175    347               228527   228527   35675

     Using Pencil Decomposition



     bravais-lattice index     =            0
     lattice parameter (alat)  =       1.0000  a.u.
     unit-cell volume          =    2603.1166 (a.u.)^3
     number of atoms/cell      =           24
     number of atomic types    =            2
     number of electrons       =       192.00
     number of Kohn-Sham states=          115
     kinetic-energy cutoff     =      75.0000  Ry
     charge density cutoff     =     300.0000  Ry
     cutoff for Fock operator  =     300.0000  Ry
     scf convergence threshold =      1.0E-06
     mixing beta               =       0.7000
     number of iterations used =            8  plain     mixing
     Exchange-correlation= HSE
                           (   1   4  12   4   0   0   0)
     EXX-fraction              =        0.25

     celldm(1)=   1.000000  celldm(2)=   0.000000  celldm(3)=   0.000000
     celldm(4)=   0.000000  celldm(5)=   0.000000  celldm(6)=   0.000000

     crystal axes: (cart. coord. in units of alat)
               a(1) = (   8.761849   0.000000   0.000000 )  
               a(2) = (   0.000000   5.607558   0.000000 )  
               a(3) = (   0.000000   0.000000  52.981483 )  

     reciprocal axes: (cart. coord. in units 2 pi/alat)
               b(1) = (  0.114131  0.000000  0.000000 )  
               b(2) = (  0.000000  0.178331  0.000000 )  
               b(3) = (  0.000000  0.000000  0.018875 )  


     PseudoPot. # 1 for Ti read from file:
     ./22_Ti_12_2.0_2.8_pbe_n_v1.0.upf
     MD5 check sum: 5292e08a1afa329970694609a7514cd4
     Pseudo is Norm-conserving + core correction, Zval = 12.0
     Generated using ONCVPSP code by D. R. Hamann
     Using radial grid of 1584 points,  6 beta functions with: 
                l(1) =   0
                l(2) =   0
                l(3) =   1
                l(4) =   1
                l(5) =   2
                l(6) =   2

     PseudoPot. # 2 for O  read from file:
     ./08_O_6_1.2_1.4_pbe_n_v1.0.upf
     MD5 check sum: a8b7f44dbbd6106bf79c6036dc5c6a43
     Pseudo is Norm-conserving + core correction, Zval =  6.0
     Generated using ONCVPSP code by D. R. Hamann
     Using radial grid of  934 points,  5 beta functions with: 
                l(1) =   0
                l(2) =   0
                l(3) =   1
                l(4) =   1
                l(5) =   2

     atomic species   valence    mass     pseudopotential
        Ti1           12.00    47.86700     Ti( 1.00)
        O1             6.00    15.99900     O ( 1.00)

     No symmetry found



   Cartesian axes

     site n.     atom                  positions (alat units)
         1           O1  tau(   1) = (   2.6719896   0.0000000  13.8295544  )
         2           O1  tau(   2) = (   6.0898595   0.0000000  17.2473047  )
         3           O1  tau(   3) = (   7.0529141   2.8037788  12.8663793  )
         4           O1  tau(   4) = (   1.7089351   2.8037788   9.4486306  )
         5           O1  tau(   5) = (   2.6719896   0.0000000  22.5914035  )
         6           O1  tau(   6) = (   6.0898595   0.0000000  26.0091537  )
         7           O1  tau(   7) = (   7.0529141   2.8037788  21.6282284  )
         8           O1  tau(   8) = (   1.7089351   2.8037788  18.2104797  )
         9           O1  tau(   9) = (   2.6719896   0.0000000  31.3532526  )
        10           O1  tau(  10) = (   6.0898595   0.0000000  34.7710028  )
        11           O1  tau(  11) = (   7.0529141   2.8037788  30.3900774  )
        12           O1  tau(  12) = (   1.7089351   2.8037788  26.9723288  )
        13           O1  tau(  13) = (   2.6719896   0.0000000  40.1151017  )
        14           O1  tau(  14) = (   6.0898595   0.0000000  43.5328519  )
        15           O1  tau(  15) = (   7.0529141   2.8037788  39.1519265  )
        16           O1  tau(  16) = (   1.7089351   2.8037788  35.7341779  )
        17           Ti1 tau(  17) = (   0.0000000   0.0000000  11.1575050  )
        18           Ti1 tau(  18) = (   4.3809245   2.8037788  15.5384296  )
        19           Ti1 tau(  19) = (   0.0000000   0.0000000  19.9193541  )
        20           Ti1 tau(  20) = (   4.3809245   2.8037788  24.3002787  )
        21           Ti1 tau(  21) = (   0.0000000   0.0000000  28.6812032  )
        22           Ti1 tau(  22) = (   4.3809245   2.8037788  33.0621278  )
        23           Ti1 tau(  23) = (   0.0000000   0.0000000  37.4430523  )
        24           Ti1 tau(  24) = (   4.3809245   2.8037788  41.8239769  )

     number of k points=    20  Gaussian smearing, width (Ry)=  0.0037
                       cart. coord. in units 2pi/alat
        k(    1) = (   0.0000000   0.0000000   0.0000000), wk =   0.0555556
        k(    2) = (   0.0000000   0.0297218   0.0000000), wk =   0.1111111
        k(    3) = (   0.0000000   0.0594436   0.0000000), wk =   0.1111111
        k(    4) = (   0.0000000  -0.0891654   0.0000000), wk =   0.0555556
        k(    5) = (   0.0190219   0.0000000   0.0000000), wk =   0.1111111
        k(    6) = (   0.0190219   0.0297218   0.0000000), wk =   0.1111111
        k(    7) = (   0.0190219   0.0594436   0.0000000), wk =   0.1111111
        k(    8) = (   0.0190219  -0.0891654   0.0000000), wk =   0.1111111
        k(    9) = (   0.0190219  -0.0594436   0.0000000), wk =   0.1111111
        k(   10) = (   0.0190219  -0.0297218   0.0000000), wk =   0.1111111
        k(   11) = (   0.0380437   0.0000000   0.0000000), wk =   0.1111111
        k(   12) = (   0.0380437   0.0297218   0.0000000), wk =   0.1111111
        k(   13) = (   0.0380437   0.0594436   0.0000000), wk =   0.1111111
        k(   14) = (   0.0380437  -0.0891654   0.0000000), wk =   0.1111111
        k(   15) = (   0.0380437  -0.0594436   0.0000000), wk =   0.1111111
        k(   16) = (   0.0380437  -0.0297218   0.0000000), wk =   0.1111111
        k(   17) = (  -0.0570656   0.0000000   0.0000000), wk =   0.0555556
        k(   18) = (  -0.0570656   0.0297218   0.0000000), wk =   0.1111111
        k(   19) = (  -0.0570656   0.0594436   0.0000000), wk =   0.1111111
        k(   20) = (  -0.0570656  -0.0891654   0.0000000), wk =   0.0555556

     Dense  grid:   228527 G-vectors     FFT dimensions: (  50,  32, 300)

     Estimated max dynamical RAM per process >     279.27 MB

     Estimated total dynamical RAM >      32.73 GB

     Check: negative core charge=   -0.000002

     Initial potential from superposition of free atoms

     starting charge     191.9872, renormalised to     192.0000

     negative rho (up, down):  7.136E-06 0.000E+00
     Starting wfcs are  144 randomized atomic wfcs

     total cpu time spent up to now is        3.0 secs

     per-process dynamical memory:    50.0 Mb

     Self-consistent Calculation

     iteration #  1     ecut=    75.00 Ry     beta= 0.70
     Davidson diagonalization with overlap
     ethr =  1.00E-02,  avg # of iterations =  2.0

     total cpu time spent up to now is        7.4 secs

     total energy              =   -1463.85805218 Ry
     estimated scf accuracy    <      11.87738000 Ry

     iteration #  2     ecut=    75.00 Ry     beta= 0.70
     Davidson diagonalization with overlap
     ethr =  6.19E-03,  avg # of iterations =  6.5

     total cpu time spent up to now is       16.6 secs

     total energy              =   -1446.93383875 Ry
     estimated scf accuracy    <     170.82147926 Ry

     iteration #  3     ecut=    75.00 Ry     beta= 0.70
     Davidson diagonalization with overlap
     ethr =  6.19E-03,  avg # of iterations =  6.8

     total cpu time spent up to now is       26.1 secs

     total energy              =   -1458.83635678 Ry
     estimated scf accuracy    <     483.97445021 Ry

     iteration #  4     ecut=    75.00 Ry     beta= 0.70
     Davidson diagonalization with overlap
     ethr =  6.19E-03,  avg # of iterations =  3.9

     total cpu time spent up to now is       30.9 secs

     total energy              =   -1470.61161023 Ry
     estimated scf accuracy    <       2.93179975 Ry

     iteration #  5     ecut=    75.00 Ry     beta= 0.70
     Davidson diagonalization with overlap
     ethr =  1.53E-03,  avg # of iterations = 10.3

     total cpu time spent up to now is       39.1 secs

     total energy              =   -1470.64270963 Ry
     estimated scf accuracy    <       1.57630791 Ry

     iteration #  6     ecut=    75.00 Ry     beta= 0.70
     Davidson diagonalization with overlap
     ethr =  8.21E-04,  avg # of iterations =  1.9

     total cpu time spent up to now is       43.2 secs

     total energy              =   -1470.32258586 Ry
     estimated scf accuracy    <       1.28083746 Ry

     iteration #  7     ecut=    75.00 Ry     beta= 0.70
     Davidson diagonalization with overlap
     ethr =  6.67E-04,  avg # of iterations =  2.4

     total cpu time spent up to now is       47.6 secs

     total energy              =   -1470.32905337 Ry
     estimated scf accuracy    <       0.32308647 Ry

     iteration #  8     ecut=    75.00 Ry     beta= 0.70
     Davidson diagonalization with overlap
     c_bands:  1 eigenvalues not converged
     c_bands:  1 eigenvalues not converged
     c_bands:  2 eigenvalues not converged
     ethr =  1.68E-04,  avg # of iterations = 14.7

     total cpu time spent up to now is       61.4 secs

     total energy              =   -1470.38189524 Ry
     estimated scf accuracy    <       0.03992206 Ry

     iteration #  9     ecut=    75.00 Ry     beta= 0.70
     Davidson diagonalization with overlap
     c_bands:  1 eigenvalues not converged
     ethr =  2.08E-05,  avg # of iterations =  9.6

     total cpu time spent up to now is       69.6 secs

     total energy              =   -1470.38600343 Ry
     estimated scf accuracy    <       0.01146021 Ry

     iteration # 10     ecut=    75.00 Ry     beta= 0.70
     Davidson diagonalization with overlap
     c_bands:  1 eigenvalues not converged
     ethr =  5.97E-06,  avg # of iterations =  9.7

     total cpu time spent up to now is       77.7 secs

     total energy              =   -1470.38731219 Ry
     estimated scf accuracy    <       0.00519962 Ry

     iteration # 11     ecut=    75.00 Ry     beta= 0.70
     Davidson diagonalization with overlap
     ethr =  2.71E-06,  avg # of iterations =  8.2

     total cpu time spent up to now is       85.3 secs

     total energy              =   -1470.38669420 Ry
     estimated scf accuracy    <       0.00604812 Ry

     iteration # 12     ecut=    75.00 Ry     beta= 0.70
     Davidson diagonalization with overlap
     ethr =  2.71E-06,  avg # of iterations =  3.5

     total cpu time spent up to now is       90.1 secs

     total energy              =   -1470.38602887 Ry
     estimated scf accuracy    <       0.00271013 Ry

     iteration # 13     ecut=    75.00 Ry     beta= 0.70
     Davidson diagonalization with overlap
     c_bands:  4 eigenvalues not converged
     c_bands:  1 eigenvalues not converged
     c_bands:  3 eigenvalues not converged
     c_bands:  5 eigenvalues not converged
     c_bands:  3 eigenvalues not converged
     c_bands:  5 eigenvalues not converged
     c_bands:  4 eigenvalues not converged
     c_bands:  5 eigenvalues not converged
     c_bands:  5 eigenvalues not converged
     c_bands:  2 eigenvalues not converged
     c_bands:  4 eigenvalues not converged
     c_bands:  5 eigenvalues not converged
     c_bands:  3 eigenvalues not converged
     c_bands:  4 eigenvalues not converged
     c_bands:  5 eigenvalues not converged
     ethr =  1.41E-06,  avg # of iterations = 22.0

     total cpu time spent up to now is      107.3 secs

     total energy              =   -1470.38560231 Ry
     estimated scf accuracy    <       0.01284806 Ry

     iteration # 14     ecut=    75.00 Ry     beta= 0.70
     Davidson diagonalization with overlap
     c_bands:  2 eigenvalues not converged
     c_bands:  1 eigenvalues not converged
     c_bands:  2 eigenvalues not converged
     c_bands:  1 eigenvalues not converged
     c_bands:  1 eigenvalues not converged
     c_bands:  1 eigenvalues not converged
     c_bands:  1 eigenvalues not converged
     c_bands:  1 eigenvalues not converged
     c_bands:  2 eigenvalues not converged
     c_bands:  1 eigenvalues not converged
     ethr =  1.41E-06,  avg # of iterations = 16.2

     total cpu time spent up to now is      119.8 secs

     total energy              =   -1470.38708057 Ry
     estimated scf accuracy    <       0.00025399 Ry

     iteration # 15     ecut=    75.00 Ry     beta= 0.70
     Davidson diagonalization with overlap
     c_bands:  1 eigenvalues not converged
     ethr =  1.32E-07,  avg # of iterations =  6.9

     total cpu time spent up to now is      127.1 secs

     total energy              =   -1470.38712790 Ry
     estimated scf accuracy    <       0.00009990 Ry

     iteration # 16     ecut=    75.00 Ry     beta= 0.70
     Davidson diagonalization with overlap
     ethr =  5.20E-08,  avg # of iterations =  5.0

     total cpu time spent up to now is      132.8 secs

     total energy              =   -1470.38714544 Ry
     estimated scf accuracy    <       0.00001721 Ry

     iteration # 17     ecut=    75.00 Ry     beta= 0.70
     Davidson diagonalization with overlap
     ethr =  8.96E-09,  avg # of iterations =  5.7

     total cpu time spent up to now is      139.5 secs

     total energy              =   -1470.38714877 Ry
     estimated scf accuracy    <       0.00000709 Ry

     iteration # 18     ecut=    75.00 Ry     beta= 0.70
     Davidson diagonalization with overlap
     ethr =  3.69E-09,  avg # of iterations =  3.4

     total cpu time spent up to now is      144.5 secs

     total energy              =   -1470.38714945 Ry
     estimated scf accuracy    <       0.00000172 Ry

     iteration # 19     ecut=    75.00 Ry     beta= 0.70
     Davidson diagonalization with overlap
     ethr =  8.96E-10,  avg # of iterations =  5.5

     total cpu time spent up to now is      151.2 secs

     End of self-consistent calculation

          k = 0.0000 0.0000 0.0000 ( 28593 PWs)   bands (ev):

   -53.4594 -53.4557 -53.4523 -53.4489 -53.4458 -53.4445 -53.2025 -53.2023
   -29.7717 -29.7712 -29.7556 -29.7546 -29.7379 -29.7373 -29.6662 -29.6658
   -29.6466 -29.6458 -29.6306 -29.6300 -29.5816 -29.5799 -29.5752 -29.5660
   -29.5656 -29.5654 -29.5570 -29.5524 -29.3958 -29.3956 -29.1919 -29.1917
   -14.5546 -14.4112 -14.1864 -13.9094 -13.6418 -13.4919 -13.3753 -13.3747
   -12.9869 -12.9573 -12.9263 -12.8577 -12.8337 -12.7978 -11.8907 -11.8902
    -2.1385  -1.8995  -1.7275  -1.6456  -1.5346  -1.4580  -1.2275  -0.9952
    -0.9060  -0.8773  -0.4738  -0.2801  -0.2788  -0.2600  -0.2585  -0.2356
    -0.2352   0.1708   0.2173   0.2175   0.4413   0.5242   0.6453   0.7606
     0.8372   0.8941   0.9767   1.5355   1.6003   1.7460   1.7477   1.9853
     2.1572   2.2474   2.2866   2.4539   2.5108   2.5837   2.6377   2.7491
     2.7502   2.9513   2.9626   2.9663   3.0870   3.1704   3.2635   3.3724
     5.3782   5.5067   5.6946   5.7081   5.9121   5.9165   5.9621   6.0143
     6.0221   6.1505   6.1659   6.1974   6.3095   6.3183   6.3461   6.3565
     6.4182   6.4192   6.5360

          k = 0.0000 0.0297 0.0000 ( 28509 PWs)   bands (ev):

   -53.4489 -53.4455 -53.4425 -53.4395 -53.4367 -53.4356 -53.1930 -53.1928
   -29.7458 -29.7443 -29.7339 -29.7297 -29.7172 -29.7136 -29.6955 -29.6948
   -29.6879 -29.6866 -29.6813 -29.6694 -29.6400 -29.6395 -29.6316 -29.6309
   -29.6236 -29.6229 -29.5576 -29.5574 -29.3726 -29.3725 -29.3013 -29.3011
   -14.2890 -14.1619 -13.9621 -13.7147 -13.4670 -13.3294 -13.2549 -13.2495
   -13.0770 -13.0678 -13.0210 -12.9616 -12.9540 -12.9158 -11.9403 -11.9397
    -1.7690  -1.5603  -1.4372  -1.3245  -1.2299  -1.1284  -0.9566  -0.8562
    -0.7727  -0.7632  -0.6401  -0.5606  -0.5318  -0.5318  -0.5042  -0.3277
    -0.0550   0.2690   0.3006   0.3101   0.5598   0.6632   0.7113   0.8252
     0.8708   1.0026   1.0964   1.2344   1.2715   1.3312   1.3761   1.5339
     1.6566   1.9073   1.9231   2.1421   2.1933   2.2145   2.3849   2.4518
     2.5399   2.6299   2.7390   2.8901   3.0577   3.1472   3.1956   3.2705
     5.7426   5.8356   5.8562   5.8662   5.9769   6.0404   6.0894   6.1175
     6.2173   6.2635   6.2705   6.3112   6.3463   6.4093   6.4429   6.5770
     6.7124   6.7492   6.7880

          k = 0.0000 0.0594 0.0000 ( 28490 PWs)   bands (ev):

   -53.4273 -53.4248 -53.4229 -53.4211 -53.4188 -53.4180 -53.1740 -53.1738
   -29.9082 -29.9073 -29.9009 -29.8998 -29.8929 -29.8872 -29.6837 -29.6832
   -29.6717 -29.6710 -29.6585 -29.6582 -29.6348 -29.6341 -29.6250 -29.6239
   -29.6177 -29.6169 -29.5455 -29.5453 -29.5099 -29.5098 -29.3255 -29.3253
   -13.6948 -13.6443 -13.5651 -13.4791 -13.3953 -13.3021 -13.2080 -13.1351
   -13.1079 -13.0964 -13.0657 -13.0611 -13.0303 -13.0287 -11.9209 -11.9203
    -1.0289  -0.9824  -0.9600  -0.9302  -0.9069  -0.8430  -0.8087  -0.7982
    -0.7245  -0.6569  -0.6288  -0.5657  -0.5204  -0.4411  -0.2738  -0.2640
    -0.1108  -0.0080  -0.0075   0.1279   0.1758   0.3133   0.3410   0.4713
     0.6892   0.8412   1.1141   1.2222   1.2604   1.3745   1.4044   1.4568
     1.4953   1.5023   1.6745   1.7592   1.8285   1.8778   1.9101   2.0015
     2.1690   2.4045   2.5957   2.6061   2.7694   2.7708   2.9664   2.9783
     5.5563   5.5954   5.6940   5.7220   5.9558   6.2131   6.2704   6.3204
     6.4680   6.5678   6.5942   6.6415   6.6582   6.8262   6.8864   6.8913
     6.9777   7.0527   7.0903

          k = 0.0000-0.0892 0.0000 ( 28504 PWs)   bands (ev):

   -53.4152 -53.4140 -53.4140 -53.4121 -53.4099 -53.4095 -53.1644 -53.1643
   -30.0117 -30.0112 -30.0026 -30.0021 -29.9971 -29.9959 -29.6510 -29.6507
   -29.6414 -29.6403 -29.6362 -29.6358 -29.6295 -29.6291 -29.6287 -29.6284
   -29.6273 -29.6255 -29.5881 -29.5878 -29.5404 -29.5403 -29.3015 -29.3013
   -13.5317 -13.5314 -13.4656 -13.4653 -13.3620 -13.3618 -13.2122 -13.2121
   -13.0935 -13.0932 -12.9815 -12.9815 -12.9008 -12.9007 -11.8383 -11.8378
    -1.4151  -1.4151  -1.2171  -1.2170  -0.9957  -0.9952  -0.7632  -0.7625
    -0.4954  -0.4953  -0.4546  -0.4540  -0.2776  -0.2773  -0.1040  -0.1038
     0.1527   0.1529   0.2598   0.2603   0.3109   0.3116   0.7332   0.7332
     0.8264   0.8265   0.9696   0.9697   1.2237   1.2241   1.3304   1.3304
     1.4529   1.4529   1.6989   1.6990   1.7641   1.7642   1.9216   1.9222
     2.0268   2.0269   2.2822   2.2827   2.4594   2.4599   2.8973   2.8978
     5.4582   5.4584   5.7084   5.7087   6.0218   6.0219   6.2782   6.2782
     6.6288   6.6294   6.6406   6.6408   6.6504   6.6510   6.8412   6.8413
     7.0990   7.0996   7.1722

          k = 0.0190 0.0000 0.0000 ( 28592 PWs)   bands (ev):

   -53.4585 -53.4551 -53.4521 -53.4492 -53.4464 -53.4452 -53.2025 -53.2023
   -29.7742 -29.7738 -29.7571 -29.7565 -29.7382 -29.7380 -29.6658 -29.6658
   -29.6457 -29.6452 -29.6293 -29.6287 -29.5802 -29.5789 -29.5745 -29.5661
   -29.5652 -29.5651 -29.5581 -29.5541 -29.3956 -29.3955 -29.1919 -29.1917
   -14.4683 -14.3446 -14.1509 -13.9124 -13.6778 -13.5201 -13.3933 -13.3905
   -12.9873 -12.9838 -12.9150 -12.9143 -12.8500 -12.8247 -11.8964 -11.8959
    -2.0337  -1.9451  -1.7740  -1.6464  -1.4863  -1.4557  -1.0702  -0.9297
    -0.8950  -0.7853  -0.3910  -0.2954  -0.2945  -0.2690  -0.2674  -0.2374
    -0.2361   0.1415   0.2127   0.2129   0.5143   0.5689   0.6834   0.8188
     0.9071   0.9175   1.1934   1.5608   1.6467   1.7383   1.8081   2.0269
     2.0355   2.0851   2.2863   2.3657   2.4244   2.4421   2.4850   2.4964
     2.6476   2.7723   2.9278   2.9294   2.9890   3.0866   3.1800   3.2843
     5.4223   5.4513   5.6062   5.7326   5.9143   5.9162   6.0195   6.0250
     6.1410   6.1487   6.1720   6.3076   6.3079   6.3227   6.3337   6.3828
     6.4158   6.4219   6.6521

          k = 0.0190 0.0297 0.0000 ( 28563 PWs)   bands (ev):

   -53.4481 -53.4450 -53.4423 -53.4398 -53.4372 -53.4362 -53.1930 -53.1928
   -29.7477 -29.7468 -29.7339 -29.7324 -29.7161 -29.7153 -29.6969 -29.6950
   -29.6897 -29.6832 -29.6768 -29.6742 -29.6392 -29.6391 -29.6318 -29.6302
   -29.6225 -29.6218 -29.5573 -29.5571 -29.3726 -29.3724 -29.3013 -29.3011
   -14.2126 -14.1016 -13.9278 -13.7140 -13.4996 -13.3492 -13.2635 -13.2583
   -13.0890 -13.0786 -13.0227 -13.0193 -12.9666 -12.9402 -11.9439 -11.9434
    -1.6939  -1.6244  -1.4589  -1.3412  -1.1713  -1.1335  -0.9314  -0.8769
    -0.8047  -0.7748  -0.7363  -0.6215  -0.5315  -0.5210  -0.3390  -0.2073
     0.0839   0.2651   0.2886   0.4539   0.5792   0.6019   0.6957   0.9602
     1.0128   1.1204   1.1269   1.2058   1.2532   1.3260   1.3856   1.4418
     1.6522   1.8581   1.8921   2.0791   2.1739   2.2446   2.3520   2.3844
     2.4323   2.5367   2.6614   2.8001   2.9719   3.0774   3.1250   3.1761
     5.7784   5.8274   5.8369   5.8707   5.9819   6.0193   6.0529   6.1582
     6.1861   6.2729   6.3403   6.3968   6.4314   6.4462   6.5013   6.5965
     6.6733   6.7634   6.7956

          k = 0.0190 0.0594 0.0000 ( 28509 PWs)   bands (ev):

   -53.4268 -53.4245 -53.4229 -53.4212 -53.4190 -53.4183 -53.1740 -53.1738
   -29.9077 -29.9071 -29.9013 -29.8984 -29.8924 -29.8891 -29.6852 -29.6847
   -29.6729 -29.6717 -29.6591 -29.6582 -29.6348 -29.6339 -29.6246 -29.6233
   -29.6170 -29.6163 -29.5454 -29.5453 -29.5099 -29.5097 -29.3256 -29.3254
   -13.6669 -13.6162 -13.5374 -13.4530 -13.3730 -13.2889 -13.2170 -13.2124
   -13.1487 -13.1133 -13.0704 -13.0576 -13.0316 -13.0247 -11.9196 -11.9191
    -1.0558  -1.0539  -1.0121  -0.9733  -0.9118  -0.8942  -0.8486  -0.8097
    -0.8038  -0.7463  -0.6986  -0.6544  -0.5907  -0.4772  -0.3070  -0.3041
    -0.0258  -0.0255   0.0934   0.2187   0.3236   0.4017   0.4516   0.5241
     0.7835   0.9278   1.0365   1.2347   1.2714   1.3290   1.3781   1.4570
     1.4826   1.5531   1.6905   1.8080   1.8570   1.8816   1.9265   2.0506
     2.2273   2.4537   2.6416   2.6658   2.7472   2.7478   3.0134   3.0200
     5.5706   5.5945   5.6290   5.7744   6.0439   6.2797   6.3322   6.3487
     6.4324   6.5241   6.6112   6.6230   6.6394   6.6554   6.7861   6.8233
     6.9184   6.9621   7.0785

          k = 0.0190-0.0892 0.0000 ( 28522 PWs)   bands (ev):

   -53.4152 -53.4140 -53.4139 -53.4121 -53.4099 -53.4094 -53.1644 -53.1642
   -30.0115 -30.0109 -30.0024 -30.0018 -29.9974 -29.9960 -29.6515 -29.6511
   -29.6417 -29.6407 -29.6362 -29.6359 -29.6299 -29.6289 -29.6285 -29.6279
   -29.6275 -29.6257 -29.5884 -29.5881 -29.5406 -29.5404 -29.3016 -29.3015
   -13.5346 -13.5342 -13.4700 -13.4697 -13.3702 -13.3700 -13.2069 -13.2067
   -13.0850 -13.0847 -12.9771 -12.9771 -12.8978 -12.8977 -11.8336 -11.8331
    -1.4309  -1.4308  -1.2532  -1.2532  -1.0067  -1.0065  -0.7413  -0.7410
    -0.5829  -0.5827  -0.5082  -0.5081  -0.4342  -0.4336  -0.3313  -0.3313
    -0.0218  -0.0217   0.2594   0.2596   0.5949   0.5950   0.7304   0.7305
     0.8420   0.8421   0.9225   0.9230   1.3674   1.3678   1.4420   1.4423
     1.6031   1.6037   1.7247   1.7250   1.8566   1.8570   1.9963   1.9963
     2.1103   2.1103   2.3763   2.3767   2.4712   2.4716   2.9238   2.9244
     5.5025   5.5028   5.7034   5.7037   5.9696   5.9696   6.1997   6.1998
     6.6335   6.6341   6.6446   6.6449   6.6545   6.6550   6.8626   6.8627
     6.9075   6.9080   7.0865

          k = 0.0190-0.0594 0.0000 ( 28509 PWs)   bands (ev):

   -53.4268 -53.4245 -53.4229 -53.4212 -53.4190 -53.4183 -53.1740 -53.1738
   -29.9077 -29.9071 -29.9013 -29.8984 -29.8924 -29.8891 -29.6852 -29.6847
   -29.6729 -29.6717 -29.6591 -29.6582 -29.6348 -29.6339 -29.6246 -29.6233
   -29.6170 -29.6163 -29.5454 -29.5453 -29.5099 -29.5097 -29.3256 -29.3254
   -13.6669 -13.6162 -13.5374 -13.4530 -13.3730 -13.2889 -13.2170 -13.2124
   -13.1487 -13.1133 -13.0704 -13.0576 -13.0316 -13.0247 -11.9196 -11.9191
    -1.0558  -1.0539  -1.0121  -0.9733  -0.9118  -0.8942  -0.8486  -0.8097
    -0.8038  -0.7463  -0.6986  -0.6544  -0.5907  -0.4772  -0.3070  -0.3041
    -0.0258  -0.0255   0.0934   0.2186   0.3236   0.4017   0.4516   0.5241
     0.7835   0.9278   1.0365   1.2347   1.2714   1.3290   1.3781   1.4570
     1.4826   1.5531   1.6905   1.8080   1.8570   1.8816   1.9265   2.0506
     2.2273   2.4537   2.6416   2.6658   2.7472   2.7478   3.0134   3.0200
     5.5706   5.5945   5.6290   5.7744   6.0439   6.2797   6.3322   6.3487
     6.4324   6.5241   6.6112   6.6230   6.6394   6.6554   6.7860   6.8232
     6.9180   6.9615   7.0749

          k = 0.0190-0.0297 0.0000 ( 28563 PWs)   bands (ev):

   -53.4481 -53.4450 -53.4423 -53.4398 -53.4372 -53.4362 -53.1930 -53.1928
   -29.7477 -29.7468 -29.7339 -29.7324 -29.7161 -29.7153 -29.6969 -29.6950
   -29.6897 -29.6832 -29.6768 -29.6742 -29.6392 -29.6391 -29.6318 -29.6302
   -29.6225 -29.6218 -29.5573 -29.5571 -29.3726 -29.3724 -29.3013 -29.3011
   -14.2126 -14.1016 -13.9278 -13.7140 -13.4996 -13.3492 -13.2635 -13.2583
   -13.0890 -13.0786 -13.0227 -13.0193 -12.9666 -12.9402 -11.9439 -11.9434
    -1.6939  -1.6244  -1.4589  -1.3412  -1.1713  -1.1335  -0.9314  -0.8769
    -0.8047  -0.7748  -0.7363  -0.6215  -0.5315  -0.5210  -0.3390  -0.2073
     0.0839   0.2651   0.2886   0.4539   0.5792   0.6019   0.6957   0.9602
     1.0128   1.1204   1.1269   1.2058   1.2532   1.3260   1.3856   1.4418
     1.6522   1.8581   1.8921   2.0791   2.1739   2.2446   2.3520   2.3844
     2.4323   2.5367   2.6614   2.8001   2.9719   3.0774   3.1250   3.1761
     5.7784   5.8274   5.8369   5.8707   5.9819   6.0193   6.0529   6.1582
     6.1861   6.2729   6.3404   6.3968   6.4314   6.4462   6.5013   6.5965
     6.6733   6.7634   6.7956

          k = 0.0380 0.0000 0.0000 ( 28518 PWs)   bands (ev):

   -53.4561 -53.4537 -53.4518 -53.4500 -53.4478 -53.4470 -53.2025 -53.2023
   -29.7791 -29.7787 -29.7603 -29.7597 -29.7395 -29.7389 -29.6658 -29.6652
   -29.6444 -29.6437 -29.6266 -29.6261 -29.5772 -29.5766 -29.5719 -29.5661
   -29.5645 -29.5644 -29.5609 -29.5586 -29.3953 -29.3951 -29.1919 -29.1918
   -14.2310 -14.1649 -14.0583 -13.9205 -13.7727 -13.6472 -13.4753 -13.4735
   -13.0064 -12.9993 -12.9599 -12.9189 -12.8809 -12.8778 -11.9082 -11.9077
    -1.9344  -1.9286  -1.7686  -1.7276  -1.5192  -1.4414  -0.9238  -0.9201
    -0.5146  -0.3471  -0.3224  -0.3219  -0.2866  -0.2861  -0.2466  -0.2398
    -0.0371   0.2043   0.2044   0.3649   0.5239   0.5562   0.7642   0.8155
     1.0085   1.2405   1.3624   1.4490   1.5937   1.6713   1.6740   1.7912
     1.9399   1.9555   2.0190   2.1156   2.2168   2.2323   2.2914   2.3449
     2.4756   2.6344   2.8257   2.8920   2.8925   2.9305   2.9835   3.0244
     5.4174   5.4263   5.6140   5.6394   5.8386   5.9415   6.0298   6.0314
     6.1630   6.1664   6.2993   6.3098   6.3110   6.3261   6.4175   6.4222
     6.5470   6.6975   6.8996

          k = 0.0380 0.0297 0.0000 ( 28567 PWs)   bands (ev):

   -53.4461 -53.4438 -53.4421 -53.4405 -53.4383 -53.4376 -53.1930 -53.1928
   -29.7517 -29.7513 -29.7370 -29.7346 -29.7184 -29.7144 -29.6971 -29.6942
   -29.6871 -29.6857 -29.6771 -29.6737 -29.6409 -29.6374 -29.6309 -29.6294
   -29.6201 -29.6196 -29.5568 -29.5566 -29.3724 -29.3723 -29.3013 -29.3011
   -14.0013 -13.9386 -13.8391 -13.7140 -13.5819 -13.4664 -13.3366 -13.3328
   -13.1086 -13.0975 -13.0613 -13.0219 -12.9913 -12.9854 -11.9513 -11.9508
    -1.6266  -1.6201  -1.4571  -1.4163  -1.2012  -1.1145  -0.8668  -0.8622
    -0.7987  -0.7983  -0.7822  -0.7453  -0.6450  -0.5934   0.0170   0.1101
     0.2331   0.3183   0.5282   0.6182   0.6296   0.8196   0.8678   0.8921
     1.0437   1.0812   1.1463   1.2144   1.3286   1.3516   1.3943   1.5455
     1.7520   1.7687   1.8072   2.0243   2.0300   2.0407   2.0972   2.1722
     2.1990   2.3684   2.4653   2.6463   2.8353   2.9511   3.0304   3.0325
     5.7975   5.7987   5.9372   5.9726   6.0292   6.0341   6.1213   6.1738
     6.2027   6.2304   6.3469   6.3597   6.4962   6.4986   6.6799   6.6935
     6.7570   6.7831   6.8009

          k = 0.0380 0.0594 0.0000 ( 28551 PWs)   bands (ev):

   -53.4258 -53.4240 -53.4231 -53.4216 -53.4194 -53.4188 -53.1739 -53.1738
   -29.9075 -29.9068 -29.9002 -29.8964 -29.8929 -29.8914 -29.6880 -29.6876
   -29.6746 -29.6737 -29.6602 -29.6586 -29.6349 -29.6332 -29.6235 -29.6229
   -29.6157 -29.6150 -29.5454 -29.5452 -29.5098 -29.5096 -29.3258 -29.3256
   -13.5906 -13.5399 -13.4638 -13.3901 -13.3500 -13.3348 -13.2771 -13.2564
   -13.1725 -13.1511 -13.1120 -13.0868 -13.0513 -13.0291 -11.9172 -11.9166
    -1.1357  -1.1352  -1.0741  -1.0693  -1.0182  -1.0120  -0.9993  -0.9091
    -0.9034  -0.8361  -0.7408  -0.6540  -0.5932  -0.5571  -0.3291  -0.3266
    -0.1325   0.0769   0.2203   0.2603   0.4085   0.4224   0.6519   0.7576
     0.9221   1.0630   1.1249   1.1647   1.2410   1.2816   1.3839   1.4714
     1.5949   1.7185   1.7894   1.7926   1.9250   1.9390   2.1079   2.1431
     2.2886   2.4949   2.6454   2.6775   2.7062   2.7265   3.0476   3.0490
     5.5542   5.6287   5.7774   5.9973   6.1932   6.2214   6.3453   6.3619
     6.3774   6.4316   6.4667   6.4801   6.5525   6.6337   6.6935   6.6981
     6.8624   6.8872   7.0127

          k = 0.0380-0.0892 0.0000 ( 28606 PWs)   bands (ev):

   -53.4151 -53.4140 -53.4139 -53.4120 -53.4099 -53.4094 -53.1644 -53.1642
   -30.0113 -30.0108 -30.0023 -30.0017 -29.9971 -29.9958 -29.6517 -29.6514
   -29.6424 -29.6414 -29.6364 -29.6362 -29.6303 -29.6294 -29.6287 -29.6282
   -29.6277 -29.6260 -29.5886 -29.5882 -29.5409 -29.5407 -29.3019 -29.3018
   -13.5371 -13.5367 -13.4782 -13.4778 -13.3905 -13.3903 -13.2018 -13.2016
   -13.0594 -13.0589 -12.9678 -12.9677 -12.8954 -12.8953 -11.8243 -11.8238
    -1.4581  -1.4581  -1.3365  -1.3364  -1.1531  -1.1530  -0.9027  -0.9025
    -0.7234  -0.7231  -0.5883  -0.5882  -0.4621  -0.4618  -0.3354  -0.3353
    -0.0515  -0.0514   0.2312   0.2313   0.4719   0.4721   0.7430   0.7431
     0.8119   0.8121   0.8802   0.8805   1.2683   1.2688   1.5402   1.5405
     1.8771   1.8773   2.0645   2.0649   2.1094   2.1100   2.1995   2.1997
     2.3718   2.3720   2.5179   2.5181   2.6090   2.6092   2.9641   2.9646
     5.5265   5.5268   5.6405   5.6408   5.8309   5.8309   6.0322   6.0324
     6.6427   6.6433   6.6519   6.6520   6.6618   6.6625   6.7532   6.7533
     6.9057   6.9059   6.9868

          k = 0.0380-0.0594 0.0000 ( 28551 PWs)   bands (ev):

   -53.4258 -53.4240 -53.4231 -53.4216 -53.4194 -53.4188 -53.1739 -53.1738
   -29.9075 -29.9068 -29.9002 -29.8964 -29.8929 -29.8914 -29.6880 -29.6876
   -29.6746 -29.6737 -29.6602 -29.6586 -29.6349 -29.6332 -29.6235 -29.6229
   -29.6157 -29.6150 -29.5454 -29.5452 -29.5098 -29.5096 -29.3258 -29.3256
   -13.5906 -13.5399 -13.4638 -13.3901 -13.3500 -13.3348 -13.2771 -13.2564
   -13.1725 -13.1511 -13.1120 -13.0868 -13.0513 -13.0291 -11.9172 -11.9166
    -1.1357  -1.1352  -1.0741  -1.0693  -1.0182  -1.0120  -0.9993  -0.9091
    -0.9034  -0.8361  -0.7408  -0.6540  -0.5932  -0.5571  -0.3291  -0.3266
    -0.1325   0.0769   0.2203   0.2603   0.4085   0.4224   0.6519   0.7576
     0.9221   1.0630   1.1249   1.1647   1.2410   1.2816   1.3839   1.4714
     1.5949   1.7185   1.7894   1.7926   1.9250   1.9390   2.1079   2.1431
     2.2886   2.4949   2.6454   2.6775   2.7062   2.7265   3.0476   3.0490
     5.5542   5.6287   5.7774   5.9973   6.1932   6.2214   6.3453   6.3619
     6.3774   6.4316   6.4667   6.4801   6.5525   6.6336   6.6935   6.6980
     6.8623   6.8871   7.0121

          k = 0.0380-0.0297 0.0000 ( 28567 PWs)   bands (ev):

   -53.4461 -53.4438 -53.4421 -53.4405 -53.4383 -53.4376 -53.1930 -53.1928
   -29.7517 -29.7513 -29.7370 -29.7346 -29.7184 -29.7144 -29.6971 -29.6942
   -29.6871 -29.6857 -29.6771 -29.6737 -29.6409 -29.6374 -29.6309 -29.6294
   -29.6201 -29.6196 -29.5568 -29.5566 -29.3724 -29.3723 -29.3013 -29.3011
   -14.0013 -13.9386 -13.8391 -13.7140 -13.5819 -13.4664 -13.3366 -13.3328
   -13.1086 -13.0975 -13.0613 -13.0219 -12.9913 -12.9854 -11.9513 -11.9508
    -1.6266  -1.6201  -1.4571  -1.4163  -1.2012  -1.1145  -0.8668  -0.8622
    -0.7987  -0.7983  -0.7822  -0.7453  -0.6450  -0.5934   0.0170   0.1101
     0.2331   0.3183   0.5282   0.6182   0.6296   0.8196   0.8678   0.8921
     1.0437   1.0812   1.1463   1.2144   1.3286   1.3516   1.3943   1.5455
     1.7520   1.7687   1.8072   2.0243   2.0300   2.0407   2.0972   2.1722
     2.1990   2.3684   2.4653   2.6463   2.8353   2.9511   3.0304   3.0325
     5.7975   5.7987   5.9372   5.9726   6.0292   6.0341   6.1213   6.1738
     6.2027   6.2304   6.3469   6.3597   6.4962   6.4986   6.6799   6.6936
     6.7570   6.7831   6.8008

          k =-0.0571 0.0000 0.0000 ( 28572 PWs)   bands (ev):

   -53.4537 -53.4526 -53.4525 -53.4506 -53.4486 -53.4481 -53.2025 -53.2023
   -29.7814 -29.7810 -29.7619 -29.7614 -29.7399 -29.7397 -29.6655 -29.6654
   -29.6437 -29.6431 -29.6253 -29.6248 -29.5759 -29.5755 -29.5675 -29.5663
   -29.5642 -29.5640 -29.5640 -29.5621 -29.3951 -29.3950 -29.1919 -29.1918
   -13.9623 -13.9616 -13.9383 -13.9379 -13.9115 -13.9113 -13.5540 -13.5539
   -12.9806 -12.9800 -12.9486 -12.9483 -12.9123 -12.9121 -11.9143 -11.9138
    -1.9246  -1.9244  -1.7376  -1.7374  -1.5087  -1.5084  -0.9327  -0.9324
    -0.3349  -0.3345  -0.2953  -0.2949  -0.2482  -0.2482   0.2004   0.2006
     0.2602   0.2607   0.3083   0.3087   0.4946   0.4949   0.6764   0.6766
     0.8837   0.8839   1.2276   1.2276   1.5481   1.5487   1.8685   1.8692
     1.8996   1.8999   2.0046   2.0048   2.1180   2.1181   2.3153   2.3158
     2.5298   2.5301   2.7237   2.7243   2.8809   2.8813   2.8939   2.8945
     5.4047   5.4052   5.6240   5.6246   5.8638   5.8640   6.0351   6.0353
     6.1675   6.1676   6.3050   6.3053   6.3144   6.3145   6.4143   6.4145
     6.9946   6.9958   7.0724

          k =-0.0571 0.0297 0.0000 ( 28548 PWs)   bands (ev):

   -53.4441 -53.4429 -53.4429 -53.4410 -53.4390 -53.4385 -53.1930 -53.1928
   -29.7537 -29.7533 -29.7374 -29.7370 -29.7179 -29.7176 -29.6937 -29.6933
   -29.6854 -29.6853 -29.6778 -29.6775 -29.6391 -29.6387 -29.6299 -29.6295
   -29.6190 -29.6185 -29.5565 -29.5564 -29.3724 -29.3722 -29.3013 -29.3011
   -13.7491 -13.7483 -13.7301 -13.7297 -13.7120 -13.7117 -13.4194 -13.4193
   -13.0697 -13.0692 -13.0468 -13.0465 -13.0208 -13.0205 -11.9550 -11.9545
    -1.6181  -1.6179  -1.4278  -1.4276  -1.1894  -1.1891  -0.8530  -0.8529
    -0.8155  -0.8153  -0.7611  -0.7608  -0.6450  -0.6447   0.1675   0.1678
     0.3440   0.3443   0.6108   0.6110   0.9045   0.9047   0.9969   0.9971
     1.2117   1.2119   1.3241   1.3247   1.3671   1.3676   1.3983   1.3984
     1.5072   1.5072   1.7547   1.7549   1.8647   1.8649   1.9975   1.9978
     2.2389   2.2390   2.5726   2.5730   2.8047   2.8053   3.0055   3.0060
     5.8058   5.8063   5.9769   5.9774   6.1075   6.1082   6.1685   6.1692
     6.2171   6.2172   6.3395   6.3397   6.4620   6.4625   6.7730   6.7738
     6.8874   6.8880   6.9883

          k =-0.0571 0.0594 0.0000 ( 28586 PWs)   bands (ev):

   -53.4248 -53.4236 -53.4236 -53.4217 -53.4196 -53.4191 -53.1739 -53.1738
   -29.9074 -29.9068 -29.8986 -29.8982 -29.8925 -29.8914 -29.6894 -29.6890
   -29.6753 -29.6749 -29.6597 -29.6595 -29.6342 -29.6340 -29.6230 -29.6225
   -29.6151 -29.6144 -29.5454 -29.5452 -29.5097 -29.5096 -29.3259 -29.3257
   -13.4833 -13.4831 -13.4350 -13.4348 -13.3608 -13.3607 -13.2784 -13.2781
   -13.1741 -13.1740 -13.1075 -13.1073 -13.0630 -13.0627 -11.9160 -11.9154
    -1.1589  -1.1588  -1.1281  -1.1280  -1.0350  -1.0347  -1.0273  -1.0271
    -0.8817  -0.8815  -0.7464  -0.7462  -0.6859  -0.6854  -0.1940  -0.1934
     0.0529   0.0531   0.1551   0.1553   0.4009   0.4014   0.7715   0.7722
     1.0006   1.0009   1.1394   1.1396   1.2784   1.2790   1.5731   1.5739
     1.6811   1.6816   1.8017   1.8020   1.9814   1.9819   2.3427   2.3436
     2.4789   2.4795   2.4855   2.4860   2.6579   2.6584   3.0300   3.0304
     5.7772   5.7773   5.9052   5.9053   6.0950   6.0951   6.3015   6.3016
     6.3866   6.3871   6.4878   6.4884   6.6036   6.6038   6.6286   6.6288
     6.8274   6.8282   6.9927

          k =-0.0571-0.0892 0.0000 ( 28576 PWs)   bands (ev):

   -53.4151 -53.4140 -53.4139 -53.4120 -53.4099 -53.4094 -53.1644 -53.1642
   -30.0115 -30.0109 -30.0023 -30.0018 -29.9966 -29.9954 -29.6515 -29.6512
   -29.6427 -29.6416 -29.6366 -29.6363 -29.6303 -29.6296 -29.6294 -29.6291
   -29.6277 -29.6261 -29.5885 -29.5881 -29.5410 -29.5409 -29.3021 -29.3019
   -13.5367 -13.5363 -13.4820 -13.4816 -13.4024 -13.4023 -13.2013 -13.2011
   -13.0427 -13.0422 -12.9629 -12.9627 -12.8963 -12.8962 -11.8197 -11.8192
    -1.4638  -1.4638  -1.3892  -1.3891  -1.2563  -1.2562  -1.0218  -1.0216
    -0.7941  -0.7938  -0.5697  -0.5696  -0.3904  -0.3896  -0.2654  -0.2646
     0.0248   0.0249   0.1463   0.1465   0.2796   0.2801   0.7506   0.7507
     0.7916   0.7917   0.9021   0.9021   1.2317   1.2322   1.5019   1.5022
     1.8576   1.8577   2.1187   2.1190   2.3406   2.3415   2.4369   2.4375
     2.5282   2.5283   2.6375   2.6376   2.7222   2.7224   2.9639   2.9643
     5.4294   5.4295   5.5842   5.5842   5.7816   5.7817   5.9569   5.9571
     6.6506   6.6512   6.6610   6.6612   6.6705   6.6711   6.7410   6.7411
     6.9229   6.9233   6.9591

     the Fermi energy is     3.8202 ev

!    total energy              =   -1470.38714960 Ry
     estimated scf accuracy    <       0.00000038 Ry
     smearing contrib. (-TS)   =      -0.00000000 Ry
     internal energy E=F+TS    =   -1470.38714960 Ry

     convergence has been achieved in  19 iterations

     Using ACE for calculation of exact exchange

     EXX grid:   228527 G-vectors     FFT dimensions: (  50,  32, 300)

     EXX: now go back to refine exchange calculation

     total cpu time spent up to now is     8575.1 secs

     per-process dynamical memory:   415.8 Mb

     Self-consistent Calculation

     iteration #  1     ecut=    75.00 Ry     beta= 0.70
     Davidson diagonalization with overlap
     ethr =  8.96E-10,  avg # of iterations = 17.3

     total cpu time spent up to now is     8601.1 secs

     total energy              =   -1459.79558191 Ry
     estimated scf accuracy    <       0.24624350 Ry

     iteration #  2     ecut=    75.00 Ry     beta= 0.70
     Davidson diagonalization with overlap
     ethr =  1.28E-04,  avg # of iterations =  5.0

     total cpu time spent up to now is     8609.2 secs

     total energy              =   -1459.78859848 Ry
     estimated scf accuracy    <       0.63933542 Ry

     iteration #  3     ecut=    75.00 Ry     beta= 0.70
     Davidson diagonalization with overlap
     ethr =  1.28E-04,  avg # of iterations =  4.5

     total cpu time spent up to now is     8615.7 secs

     total energy              =   -1459.91264067 Ry
     estimated scf accuracy    <       0.04476625 Ry

     iteration #  4     ecut=    75.00 Ry     beta= 0.70
     Davidson diagonalization with overlap
     ethr =  2.33E-05,  avg # of iterations =  4.2

     total cpu time spent up to now is     8621.8 secs

     total energy              =   -1459.92371369 Ry
     estimated scf accuracy    <       0.00299221 Ry

     iteration #  5     ecut=    75.00 Ry     beta= 0.70
     Davidson diagonalization with overlap
     ethr =  1.56E-06,  avg # of iterations =  4.6

     total cpu time spent up to now is     8628.5 secs

     total energy              =   -1459.92437122 Ry
     estimated scf accuracy    <       0.00114313 Ry

     iteration #  6     ecut=    75.00 Ry     beta= 0.70
     Davidson diagonalization with overlap
     ethr =  5.95E-07,  avg # of iterations =  3.2

     total cpu time spent up to now is     8633.5 secs

     total energy              =   -1459.92440197 Ry
     estimated scf accuracy    <       0.00029203 Ry

     iteration #  7     ecut=    75.00 Ry     beta= 0.70
     Davidson diagonalization with overlap
     ethr =  1.52E-07,  avg # of iterations =  4.0

     total cpu time spent up to now is     8639.6 secs

     total energy              =   -1459.92448584 Ry
     estimated scf accuracy    <       0.00003505 Ry

     iteration #  8     ecut=    75.00 Ry     beta= 0.70
     Davidson diagonalization with overlap
     ethr =  1.83E-08,  avg # of iterations =  3.5

     total cpu time spent up to now is     8645.2 secs

     total energy              =   -1459.92448990 Ry
     estimated scf accuracy    <       0.00001173 Ry

     iteration #  9     ecut=    75.00 Ry     beta= 0.70
     Davidson diagonalization with overlap
     ethr =  6.11E-09,  avg # of iterations =  2.5

     total cpu time spent up to now is     8650.0 secs

     total energy              =   -1459.92449052 Ry
     estimated scf accuracy    <       0.00000279 Ry

     iteration # 10     ecut=    75.00 Ry     beta= 0.70
     Davidson diagonalization with overlap
     ethr =  1.45E-09,  avg # of iterations =  4.0

     total cpu time spent up to now is     8655.9 secs

     End of self-consistent calculation

          k = 0.0000 0.0000 0.0000 ( 28593 PWs)   bands (ev):

   -58.3481 -58.3432 -58.3388 -58.3353 -58.3299 -58.3295 -58.0535 -58.0517
   -33.2009 -33.2006 -33.1797 -33.1790 -33.1582 -33.1575 -33.0843 -33.0837
   -33.0610 -33.0602 -33.0426 -33.0423 -32.9806 -32.9745 -32.9681 -32.9587
   -32.9485 -32.9434 -32.9324 -32.9310 -32.7950 -32.7934 -32.5643 -32.5622
   -17.3761 -17.2177 -16.9740 -16.6783 -16.3983 -16.2511 -16.1245 -16.1237
   -15.6842 -15.6573 -15.6086 -15.5437 -15.5133 -15.4782 -14.4485 -14.4483
    -3.6749  -3.3930  -3.2159  -3.0914  -3.0043  -2.8962  -2.6600  -2.4243
    -2.3415  -2.2858  -1.8149  -1.6748  -1.6721  -1.6544  -1.6499  -1.6291
    -1.6273  -1.1600  -1.1598  -1.1004  -0.8168  -0.7358  -0.5860  -0.4881
    -0.4122  -0.3598  -0.1924   0.3237   0.4129   0.5923   0.6573   0.8682
     1.0956   1.1853   1.2029   1.4730   1.5236   1.5523   1.6112   1.7260
     1.7516   1.9144   1.9292   1.9588   2.0909   2.2066   2.2890   2.3713
     5.8639   6.0077   6.2136   6.2246   6.4600   6.4646   6.5098   6.5646
     6.5719   6.7160   6.7317   6.7703   6.8944   6.9015   6.9053   6.9155
     7.0205   7.0230   7.1520

          k = 0.0000 0.0297 0.0000 ( 28509 PWs)   bands (ev):

   -58.3367 -58.3322 -58.3282 -58.3253 -58.3200 -58.3198 -58.0430 -58.0412
   -33.1719 -33.1701 -33.1567 -33.1503 -33.1376 -33.1299 -33.1090 -33.1014
   -33.1003 -33.0992 -33.0880 -33.0761 -33.0529 -33.0479 -33.0456 -33.0386
   -33.0349 -33.0323 -32.9223 -32.9209 -32.7695 -32.7679 -32.6885 -32.6864
   -17.0868 -16.9465 -16.7301 -16.4653 -16.2036 -16.0704 -15.9925 -15.9848
   -15.7872 -15.7765 -15.7204 -15.6600 -15.6487 -15.6106 -14.5011 -14.5010
    -3.2745  -3.0305  -2.9024  -2.7460  -2.6793  -2.5369  -2.3603  -2.2716
    -2.1949  -2.1841  -2.0434  -1.9692  -1.9428  -1.9236  -1.8763  -1.6806
    -1.3726  -1.0539  -1.0532  -1.0045  -0.6944  -0.6095  -0.5734  -0.4258
    -0.3516  -0.2352  -0.1047   0.0206   0.0973   0.1275   0.1644   0.3816
     0.5379   0.7962   0.8124   1.0764   1.1370   1.1663   1.3580   1.4235
     1.5250   1.6410   1.7372   1.8703   2.0419   2.1563   2.2263   2.2780
     6.2699   6.3716   6.3976   6.4107   6.5374   6.5916   6.6415   6.6951
     6.7958   6.8192   6.8245   6.8663   6.9144   6.9907   7.0268   7.1929
     7.3519   7.3545   7.3929

          k = 0.0000 0.0594 0.0000 ( 28490 PWs)   bands (ev):

   -58.3132 -58.3099 -58.3071 -58.3058 -58.3002 -58.3002 -58.0220 -58.0202
   -33.3411 -33.3390 -33.3366 -33.3361 -33.3274 -33.3210 -33.1020 -33.1010
   -33.0873 -33.0852 -33.0717 -33.0698 -33.0472 -33.0460 -33.0349 -33.0344
   -33.0277 -33.0276 -32.9244 -32.9225 -32.9055 -32.9040 -32.7174 -32.7158
   -16.4440 -16.3930 -16.3135 -16.2220 -16.1278 -16.0268 -15.9289 -15.8560
   -15.8231 -15.8084 -15.7733 -15.7709 -15.7343 -15.7341 -14.4755 -14.4755
    -2.4732  -2.4243  -2.3793  -2.3469  -2.3407  -2.2582  -2.2279  -2.2127
    -2.1270  -2.0654  -2.0177  -1.9353  -1.9024  -1.7936  -1.6456  -1.6411
    -1.4534  -1.3665  -1.3492  -1.1689  -1.1381  -1.0270  -0.9619  -0.8055
    -0.5488  -0.4046  -0.1105   0.0450   0.0730   0.2083   0.2130   0.2565
     0.3329   0.3476   0.5309   0.6234   0.6605   0.7143   0.7816   0.9034
     1.0994   1.3508   1.5511   1.5521   1.7454   1.7498   2.0315   2.0405
     6.0470   6.0857   6.1917   6.2189   6.4691   6.7992   6.8325   6.9386
     7.1211   7.1668   7.2677   7.3311   7.3511   7.4513   7.5278   7.5333
     7.6314   7.7210   7.7565

          k = 0.0000-0.0892 0.0000 ( 28504 PWs)   bands (ev):

   -58.3002 -58.2991 -58.2970 -58.2962 -58.2905 -58.2903 -58.0115 -58.0097
   -33.4547 -33.4543 -33.4498 -33.4496 -33.4458 -33.4455 -33.0774 -33.0762
   -33.0513 -33.0509 -33.0466 -33.0466 -33.0420 -33.0410 -33.0380 -33.0375
   -33.0346 -33.0346 -33.0047 -33.0040 -32.8979 -32.8964 -32.6907 -32.6890
   -16.2907 -16.2906 -16.2147 -16.2144 -16.1003 -16.1002 -15.9411 -15.9409
   -15.7925 -15.7924 -15.6704 -15.6701 -15.5832 -15.5830 -14.3839 -14.3839
    -2.8915  -2.8914  -2.6749  -2.6747  -2.4446  -2.4443  -2.1962  -2.1960
    -1.8820  -1.8818  -1.8565  -1.8562  -1.6481  -1.6481  -1.4087  -1.4087
    -1.1557  -1.1555  -1.0709  -1.0708  -0.9767  -0.9763  -0.5350  -0.5349
    -0.4336  -0.4334  -0.2738  -0.2738   0.0469   0.0472   0.1489   0.1490
     0.2958   0.2959   0.5347   0.5349   0.6157   0.6162   0.7654   0.7657
     0.8895   0.8895   1.2006   1.2006   1.3913   1.3913   2.0022   2.0023
     5.9241   5.9242   6.1921   6.1922   6.5389   6.5393   6.8295   6.8296
     7.3520   7.3523   7.3661   7.3665   7.3780   7.3783   7.4384   7.4390
     7.7623   7.7631   7.8535

          k = 0.0190 0.0000 0.0000 ( 28592 PWs)   bands (ev):

   -58.3471 -58.3426 -58.3386 -58.3357 -58.3304 -58.3302 -58.0535 -58.0517
   -33.2045 -33.2042 -33.1820 -33.1815 -33.1589 -33.1584 -33.0839 -33.0836
   -33.0594 -33.0589 -33.0400 -33.0398 -32.9781 -32.9729 -32.9674 -32.9593
   -32.9502 -32.9458 -32.9319 -32.9305 -32.7946 -32.7930 -32.5643 -32.5622
   -17.2834 -17.1469 -16.9379 -16.6846 -16.4387 -16.2779 -16.1428 -16.1395
   -15.6855 -15.6804 -15.6019 -15.5999 -15.5331 -15.5057 -14.4542 -14.4542
    -3.5583  -3.4528  -3.2529  -3.1113  -2.9352  -2.8966  -2.4899  -2.3638
    -2.3284  -2.1735  -1.7305  -1.6913  -1.6903  -1.6622  -1.6605  -1.6299
    -1.6287  -1.1647  -1.1644  -1.1445  -0.7320  -0.6722  -0.5499  -0.4092
    -0.3258  -0.3069   0.0203   0.3608   0.4690   0.6285   0.6592   0.9169
     0.9501   1.0109   1.1959   1.3281   1.4059   1.4234   1.4286   1.4929
     1.6554   1.7517   1.8858   1.8879   1.9931   2.1277   2.2047   2.2775
     5.9105   5.9439   6.1087   6.2484   6.4592   6.4667   6.5714   6.5763
     6.7013   6.7149   6.7395   6.8663   6.8870   6.8929   6.9102   6.9623
     7.0183   7.0255   7.2763

          k = 0.0190 0.0297 0.0000 ( 28563 PWs)   bands (ev):

   -58.3358 -58.3317 -58.3281 -58.3257 -58.3204 -58.3203 -58.0430 -58.0412
   -33.1745 -33.1738 -33.1568 -33.1545 -33.1350 -33.1337 -33.1084 -33.1066
   -33.0996 -33.0899 -33.0858 -33.0832 -33.0511 -33.0495 -33.0423 -33.0394
   -33.0320 -33.0309 -32.9218 -32.9205 -32.7693 -32.7677 -32.6885 -32.6864
   -17.0047 -16.8824 -16.6950 -16.4673 -16.2411 -16.0873 -16.0005 -15.9946
   -15.7995 -15.7870 -15.7236 -15.7186 -15.6643 -15.6356 -14.5047 -14.5047
    -3.1923  -3.1098  -2.9169  -2.7828  -2.5960  -2.5468  -2.3491  -2.2988
    -2.2302  -2.1989  -2.1509  -2.0223  -1.9224  -1.9202  -1.7051  -1.5431
    -1.2240  -1.0838  -1.0529  -0.8197  -0.7020  -0.6652  -0.5561  -0.2741
    -0.2051  -0.0896  -0.0787   0.0146   0.0525   0.1255   0.1831   0.2820
     0.5265   0.7302   0.7729   1.0088   1.1243   1.1915   1.3083   1.3395
     1.3857   1.5159   1.6589   1.8003   1.9618   2.0733   2.1534   2.1892
     6.3021   6.3670   6.3736   6.3972   6.5361   6.5738   6.5919   6.7392
     6.7773   6.8465   6.9090   6.9761   7.0122   7.0270   7.0925   7.2130
     7.2940   7.3662   7.4094

          k = 0.0190 0.0594 0.0000 ( 28509 PWs)   bands (ev):

   -58.3128 -58.3097 -58.3072 -58.3060 -58.3004 -58.3003 -58.0220 -58.0202
   -33.3402 -33.3389 -33.3369 -33.3337 -33.3273 -33.3238 -33.1037 -33.1034
   -33.0883 -33.0870 -33.0718 -33.0706 -33.0471 -33.0458 -33.0345 -33.0329
   -33.0264 -33.0263 -32.9244 -32.9225 -32.9054 -32.9040 -32.7174 -32.7158
   -16.4168 -16.3645 -16.2839 -16.1926 -16.1021 -16.0127 -15.9425 -15.9315
   -15.8687 -15.8310 -15.7832 -15.7621 -15.7333 -15.7286 -14.4741 -14.4741
    -2.5025  -2.4997  -2.4542  -2.4083  -2.3358  -2.3081  -2.2663  -2.2302
    -2.2157  -2.1502  -2.1055  -2.0553  -1.9661  -1.8396  -1.6781  -1.6718
    -1.3699  -1.3679  -1.2586  -1.1009  -0.9460  -0.9306  -0.8646  -0.7129
    -0.4348  -0.2999  -0.1887   0.0208   0.0675   0.1400   0.2109   0.2894
     0.3067   0.3997   0.5486   0.6485   0.7278   0.7287   0.8114   0.9494
     1.1502   1.3992   1.5937   1.6222   1.7333   1.7378   2.0655   2.0712
     6.0580   6.0815   6.1223   6.2805   6.5750   6.8750   6.9390   6.9590
     7.0756   7.1668   7.2219   7.2547   7.3104   7.3123   7.4341   7.4728
     7.5685   7.6222   7.7512

          k = 0.0190-0.0892 0.0000 ( 28522 PWs)   bands (ev):

   -58.3002 -58.2991 -58.2970 -58.2962 -58.2905 -58.2903 -58.0115 -58.0096
   -33.4540 -33.4536 -33.4498 -33.4497 -33.4463 -33.4460 -33.0778 -33.0766
   -33.0518 -33.0514 -33.0464 -33.0463 -33.0424 -33.0413 -33.0383 -33.0377
   -33.0337 -33.0337 -33.0053 -33.0046 -32.8981 -32.8966 -32.6908 -32.6891
   -16.2933 -16.2932 -16.2189 -16.2186 -16.1092 -16.1091 -15.9398 -15.9396
   -15.7813 -15.7812 -15.6647 -15.6644 -15.5798 -15.5797 -14.3790 -14.3790
    -2.9095  -2.9092  -2.7151  -2.7149  -2.4520  -2.4518  -2.1718  -2.1718
    -1.9873  -1.9873  -1.9055  -1.9054  -1.8276  -1.8275  -1.6916  -1.6916
    -1.3276  -1.3275  -1.0360  -1.0360  -0.6944  -0.6941  -0.5359  -0.5359
    -0.4255  -0.4254  -0.3408  -0.3407   0.1797   0.1801   0.2839   0.2841
     0.4652   0.4657   0.5835   0.5837   0.7167   0.7170   0.8494   0.8494
     0.9988   0.9990   1.2979   1.2980   1.4044   1.4044   2.0305   2.0306
     5.9720   5.9722   6.1880   6.1881   6.4819   6.4823   6.7424   6.7424
     7.3597   7.3599   7.3731   7.3733   7.3850   7.3853   7.4666   7.4681
     7.5370   7.5375   7.7534

          k = 0.0190-0.0594 0.0000 ( 28509 PWs)   bands (ev):

   -58.3128 -58.3097 -58.3072 -58.3060 -58.3004 -58.3003 -58.0220 -58.0202
   -33.3402 -33.3389 -33.3369 -33.3337 -33.3273 -33.3238 -33.1037 -33.1034
   -33.0883 -33.0870 -33.0718 -33.0706 -33.0471 -33.0458 -33.0345 -33.0329
   -33.0264 -33.0263 -32.9244 -32.9225 -32.9054 -32.9040 -32.7174 -32.7158
   -16.4168 -16.3645 -16.2839 -16.1926 -16.1021 -16.0127 -15.9425 -15.9315
   -15.8687 -15.8310 -15.7832 -15.7621 -15.7333 -15.7286 -14.4741 -14.4741
    -2.5025  -2.4997  -2.4542  -2.4083  -2.3358  -2.3081  -2.2663  -2.2302
    -2.2157  -2.1502  -2.1055  -2.0553  -1.9660  -1.8396  -1.6781  -1.6718
    -1.3699  -1.3679  -1.2586  -1.1009  -0.9460  -0.9306  -0.8646  -0.7129
    -0.4348  -0.3000  -0.1887   0.0208   0.0676   0.1401   0.2109   0.2894
     0.3067   0.3996   0.5486   0.6485   0.7279   0.7287   0.8114   0.9494
     1.1502   1.3991   1.5937   1.6222   1.7333   1.7378   2.0655   2.0712
     6.0580   6.0816   6.1223   6.2805   6.5750   6.8750   6.9390   6.9592
     7.0757   7.1668   7.2219   7.2547   7.3104   7.3123   7.4341   7.4726
     7.5678   7.6217   7.7479

          k = 0.0190-0.0297 0.0000 ( 28563 PWs)   bands (ev):

   -58.3358 -58.3317 -58.3281 -58.3257 -58.3204 -58.3203 -58.0430 -58.0412
   -33.1745 -33.1738 -33.1567 -33.1545 -33.1350 -33.1337 -33.1084 -33.1066
   -33.0996 -33.0899 -33.0858 -33.0832 -33.0511 -33.0495 -33.0424 -33.0394
   -33.0321 -33.0309 -32.9218 -32.9205 -32.7693 -32.7677 -32.6885 -32.6864
   -17.0047 -16.8824 -16.6950 -16.4673 -16.2411 -16.0873 -16.0005 -15.9946
   -15.7995 -15.7870 -15.7236 -15.7186 -15.6643 -15.6356 -14.5047 -14.5047
    -3.1923  -3.1098  -2.9169  -2.7828  -2.5960  -2.5468  -2.3491  -2.2988
    -2.2302  -2.1989  -2.1509  -2.0223  -1.9224  -1.9202  -1.7051  -1.5431
    -1.2240  -1.0838  -1.0529  -0.8197  -0.7020  -0.6652  -0.5561  -0.2741
    -0.2051  -0.0896  -0.0787   0.0146   0.0525   0.1255   0.1831   0.2820
     0.5265   0.7302   0.7729   1.0088   1.1243   1.1915   1.3083   1.3395
     1.3857   1.5159   1.6589   1.8003   1.9618   2.0733   2.1534   2.1892
     6.3021   6.3670   6.3736   6.3972   6.5361   6.5738   6.5919   6.7392
     6.7773   6.8465   6.9089   6.9761   7.0122   7.0270   7.0925   7.2131
     7.2940   7.3662   7.4093

          k = 0.0380 0.0000 0.0000 ( 28518 PWs)   bands (ev):

   -58.3446 -58.3413 -58.3385 -58.3371 -58.3316 -58.3315 -58.0535 -58.0517
   -33.2113 -33.2110 -33.1866 -33.1863 -33.1607 -33.1599 -33.0839 -33.0832
   -33.0567 -33.0562 -33.0351 -33.0349 -32.9714 -32.9683 -32.9658 -32.9609
   -32.9547 -32.9524 -32.9308 -32.9295 -32.7939 -32.7923 -32.5644 -32.5624
   -17.0283 -16.9563 -16.8431 -16.6982 -16.5424 -16.4091 -16.2268 -16.2247
   -15.7084 -15.6955 -15.6484 -15.6033 -15.5657 -15.5641 -14.4662 -14.4662
    -3.4457  -3.4394  -3.2512  -3.2006  -2.9673  -2.8825  -2.3616  -2.3587
    -1.8749  -1.7207  -1.7204  -1.6896  -1.6809  -1.6805  -1.6394  -1.6326
    -1.3473  -1.1733  -1.1730  -0.9085  -0.7234  -0.6868  -0.4519  -0.3956
    -0.1915   0.0655   0.2049   0.3102   0.4612   0.5020   0.5510   0.6369
     0.8180   0.8402   0.9493   0.9938   1.1087   1.1392   1.2726   1.2781
     1.4807   1.6368   1.8260   1.8413   1.8414   1.9395   2.0066   2.0221
     5.9001   5.9110   6.1122   6.1421   6.3671   6.4894   6.5848   6.5862
     6.7320   6.7352   6.8545   6.8576   6.8863   6.9148   7.0206   7.0249
     7.1536   7.3222   7.5498

          k = 0.0380 0.0297 0.0000 ( 28567 PWs)   bands (ev):

   -58.3337 -58.3307 -58.3281 -58.3270 -58.3213 -58.3213 -58.0430 -58.0412
   -33.1802 -33.1800 -33.1608 -33.1582 -33.1377 -33.1334 -33.1086 -33.1052
   -33.0945 -33.0941 -33.0854 -33.0830 -33.0528 -33.0487 -33.0409 -33.0377
   -33.0274 -33.0271 -32.9210 -32.9197 -32.7689 -32.7673 -32.6885 -32.6865
   -16.7778 -16.7093 -16.6036 -16.4719 -16.3324 -16.2088 -16.0733 -16.0689
   -15.8243 -15.8068 -15.7639 -15.7200 -15.6887 -15.6871 -14.5121 -14.5120
    -3.1145  -3.1074  -2.9195  -2.8682  -2.6248  -2.5267  -2.3019  -2.2983
    -2.2235  -2.2174  -2.2062  -2.1654  -2.0477  -1.9980  -1.3002  -1.2171
    -1.1108  -0.9928  -0.7225  -0.6431  -0.6233  -0.4094  -0.3686  -0.3312
    -0.1719  -0.1363  -0.0524   0.0133   0.1344   0.1710   0.2250   0.3886
     0.6203   0.6317   0.6803   0.9312   0.9476   0.9577   1.0072   1.0918
     1.1255   1.3163   1.4194   1.6588   1.8622   1.9427   2.0384   2.0427
     6.3307   6.3327   6.4865   6.5196   6.5613   6.5712   6.6722   6.7589
     6.7773   6.8266   6.9280   6.9303   7.0951   7.0959   7.3074   7.3207
     7.3693   7.3844   7.4234

          k = 0.0380 0.0594 0.0000 ( 28551 PWs)   bands (ev):

   -58.3116 -58.3094 -58.3073 -58.3065 -58.3008 -58.3006 -58.0220 -58.0202
   -33.3407 -33.3375 -33.3339 -33.3311 -33.3293 -33.3280 -33.1075 -33.1074
   -33.0908 -33.0895 -33.0732 -33.0714 -33.0469 -33.0449 -33.0327 -33.0318
   -33.0238 -33.0236 -32.9243 -32.9224 -32.9053 -32.9038 -32.7175 -32.7158
   -16.3410 -16.2858 -16.2041 -16.1218 -16.0903 -16.0640 -15.9967 -15.9734
   -15.8919 -15.8692 -15.8264 -15.7984 -15.7551 -15.7297 -14.4713 -14.4713
    -2.5866  -2.5865  -2.5220  -2.5177  -2.4606  -2.4492  -2.4400  -2.3351
    -2.3333  -2.2557  -2.1357  -2.0315  -1.9797  -1.9405  -1.7047  -1.6995
    -1.4886  -1.2578  -1.1144  -1.0582  -0.9187  -0.8923  -0.5914  -0.4627
    -0.2828  -0.1400  -0.0905  -0.0625   0.0370   0.0735   0.1955   0.3017
     0.4484   0.5838   0.6509   0.6656   0.8149   0.8213   1.0069   1.0382
     1.1919   1.4268   1.6040   1.6531   1.7068   1.7084   2.0858   2.0873
     6.0413   6.1225   6.2852   6.5280   6.7274   6.7812   6.9124   6.9833
     7.0207   7.0462   7.1093   7.1369   7.2125   7.2917   7.3382   7.3522
     7.5141   7.5454   7.6739

          k = 0.0380-0.0892 0.0000 ( 28606 PWs)   bands (ev):

   -58.3002 -58.2991 -58.2970 -58.2962 -58.2904 -58.2903 -58.0114 -58.0096
   -33.4539 -33.4536 -33.4497 -33.4495 -33.4461 -33.4458 -33.0780 -33.0769
   -33.0527 -33.0523 -33.0467 -33.0467 -33.0425 -33.0414 -33.0384 -33.0378
   -33.0336 -33.0336 -33.0057 -33.0050 -32.8985 -32.8970 -32.6910 -32.6894
   -16.2952 -16.2951 -16.2267 -16.2264 -16.1313 -16.1312 -15.9402 -15.9399
   -15.7518 -15.7517 -15.6530 -15.6527 -15.5768 -15.5767 -14.3692 -14.3692
    -2.9400  -2.9399  -2.8069  -2.8066  -2.6064  -2.6062  -2.3478  -2.3478
    -2.1440  -2.1439  -1.9929  -1.9928  -1.8556  -1.8554  -1.7047  -1.7046
    -1.3770  -1.3769  -1.0654  -1.0653  -0.8317  -0.8317  -0.5256  -0.5254
    -0.4588  -0.4586  -0.3847  -0.3846   0.0556   0.0561   0.3725   0.3729
     0.7411   0.7413   0.9569   0.9570   1.0142   1.0148   1.1052   1.1053
     1.2834   1.2835   1.4510   1.4510   1.5408   1.5409   2.0795   2.0795
     5.9938   5.9938   6.1259   6.1261   6.3393   6.3397   6.5628   6.5629
     7.3525   7.3526   7.3775   7.3777   7.3917   7.3921   7.4043   7.4044
     7.5271   7.5301   7.6474

          k = 0.0380-0.0594 0.0000 ( 28551 PWs)   bands (ev):

   -58.3116 -58.3094 -58.3073 -58.3065 -58.3008 -58.3006 -58.0220 -58.0202
   -33.3407 -33.3375 -33.3339 -33.3311 -33.3293 -33.3280 -33.1075 -33.1074
   -33.0908 -33.0895 -33.0732 -33.0714 -33.0469 -33.0449 -33.0327 -33.0318
   -33.0238 -33.0236 -32.9243 -32.9224 -32.9053 -32.9038 -32.7175 -32.7158
   -16.3410 -16.2858 -16.2041 -16.1218 -16.0903 -16.0640 -15.9967 -15.9734
   -15.8919 -15.8692 -15.8264 -15.7984 -15.7551 -15.7297 -14.4713 -14.4713
    -2.5866  -2.5865  -2.5220  -2.5177  -2.4606  -2.4492  -2.4400  -2.3351
    -2.3333  -2.2557  -2.1357  -2.0315  -1.9797  -1.9405  -1.7047  -1.6995
    -1.4886  -1.2578  -1.1144  -1.0582  -0.9187  -0.8923  -0.5914  -0.4627
    -0.2828  -0.1400  -0.0905  -0.0626   0.0370   0.0735   0.1955   0.3017
     0.4484   0.5838   0.6509   0.6656   0.8150   0.8213   1.0069   1.0382
     1.1919   1.4268   1.6040   1.6531   1.7068   1.7084   2.0858   2.0873
     6.0413   6.1225   6.2852   6.5280   6.7274   6.7812   6.9124   6.9833
     7.0207   7.0462   7.1092   7.1369   7.2125   7.2916   7.3381   7.3522
     7.5141   7.5451   7.6733

          k = 0.0380-0.0297 0.0000 ( 28567 PWs)   bands (ev):

   -58.3337 -58.3307 -58.3281 -58.3270 -58.3213 -58.3213 -58.0430 -58.0412
   -33.1802 -33.1800 -33.1608 -33.1582 -33.1377 -33.1334 -33.1085 -33.1052
   -33.0945 -33.0941 -33.0854 -33.0830 -33.0528 -33.0487 -33.0409 -33.0377
   -33.0274 -33.0271 -32.9210 -32.9197 -32.7689 -32.7673 -32.6885 -32.6865
   -16.7778 -16.7093 -16.6036 -16.4719 -16.3324 -16.2088 -16.0733 -16.0689
   -15.8243 -15.8068 -15.7639 -15.7200 -15.6887 -15.6871 -14.5121 -14.5120
    -3.1145  -3.1074  -2.9195  -2.8682  -2.6248  -2.5267  -2.3019  -2.2983
    -2.2235  -2.2174  -2.2062  -2.1654  -2.0477  -1.9980  -1.3002  -1.2171
    -1.1108  -0.9928  -0.7225  -0.6431  -0.6233  -0.4094  -0.3686  -0.3312
    -0.1719  -0.1363  -0.0524   0.0133   0.1344   0.1710   0.2250   0.3886
     0.6203   0.6317   0.6803   0.9312   0.9477   0.9577   1.0072   1.0918
     1.1255   1.3163   1.4194   1.6588   1.8622   1.9427   2.0384   2.0427
     6.3307   6.3327   6.4866   6.5196   6.5613   6.5712   6.6722   6.7589
     6.7773   6.8266   6.9280   6.9303   7.0951   7.0959   7.3073   7.3207
     7.3693   7.3843   7.4233

          k =-0.0571 0.0000 0.0000 ( 28572 PWs)   bands (ev):

   -58.3421 -58.3409 -58.3389 -58.3381 -58.3323 -58.3322 -58.0535 -58.0517
   -33.2145 -33.2142 -33.1887 -33.1886 -33.1613 -33.1610 -33.0836 -33.0834
   -33.0554 -33.0550 -33.0327 -33.0326 -32.9643 -32.9640 -32.9636 -32.9627
   -32.9598 -32.9591 -32.9303 -32.9289 -32.7935 -32.7919 -32.5645 -32.5624
   -16.7434 -16.7434 -16.7169 -16.7167 -16.6868 -16.6867 -16.3106 -16.3105
   -15.6769 -15.6769 -15.6379 -15.6376 -15.5987 -15.5986 -14.4724 -14.4724
    -3.4349  -3.4348  -3.2144  -3.2142  -2.9572  -2.9571  -2.3738  -2.3737
    -1.7342  -1.7341  -1.6900  -1.6899  -1.6414  -1.6412  -1.1771  -1.1769
    -1.0199  -1.0197  -0.9661  -0.9654  -0.7693  -0.7692  -0.5416  -0.5413
    -0.3178  -0.3177   0.0645   0.0647   0.4222   0.4223   0.7715   0.7716
     0.7725   0.7729   0.8767   0.8769   0.9858   0.9860   1.2662   1.2664
     1.4844   1.4846   1.7413   1.7415   1.8262   1.8263   1.9062   1.9065
     5.8840   5.8843   6.1218   6.1220   6.3984   6.3987   6.5918   6.5919
     6.7374   6.7379   6.8446   6.8456   6.9019   6.9025   7.0175   7.0178
     7.6637   7.6642   7.7495

          k =-0.0571 0.0297 0.0000 ( 28548 PWs)   bands (ev):

   -58.3317 -58.3305 -58.3285 -58.3277 -58.3219 -58.3217 -58.0430 -58.0412
   -33.1830 -33.1828 -33.1615 -33.1614 -33.1372 -33.1370 -33.1039 -33.1038
   -33.0928 -33.0926 -33.0880 -33.0877 -33.0506 -33.0504 -33.0385 -33.0382
   -33.0254 -33.0252 -32.9206 -32.9193 -32.7687 -32.7670 -32.6886 -32.6865
   -16.5090 -16.5090 -16.4896 -16.4893 -16.4681 -16.4680 -16.1616 -16.1615
   -15.7783 -15.7782 -15.7497 -15.7495 -15.7213 -15.7212 -14.5158 -14.5158
    -3.1038  -3.1037  -2.8827  -2.8825  -2.6150  -2.6149  -2.2915  -2.2915
    -2.2460  -2.2460  -2.1832  -2.1831  -2.0477  -2.0476  -1.1809  -1.1809
    -0.9347  -0.9341  -0.6398  -0.6397  -0.3241  -0.3240  -0.2212  -0.2209
     0.0161   0.0162   0.1416   0.1418   0.2042   0.2043   0.2300   0.2300
     0.3575   0.3577   0.6273   0.6273   0.7552   0.7553   0.8882   0.8883
     1.1700   1.1705   1.5269   1.5270   1.8443   1.8443   1.9978   1.9979
     6.3413   6.3416   6.5248   6.5249   6.6834   6.6837   6.7311   6.7315
     6.7803   6.7805   6.9126   6.9130   7.0547   7.0553   7.3711   7.3720
     7.5530   7.5544   7.6584

          k =-0.0571 0.0594 0.0000 ( 28586 PWs)   bands (ev):

   -58.3107 -58.3096 -58.3075 -58.3067 -58.3010 -58.3008 -58.0220 -58.0202
   -33.3388 -33.3385 -33.3331 -33.3328 -33.3285 -33.3284 -33.1093 -33.1092
   -33.0916 -33.0915 -33.0726 -33.0723 -33.0463 -33.0461 -33.0314 -33.0312
   -33.0226 -33.0224 -32.9243 -32.9224 -32.9052 -32.9038 -32.7175 -32.7158
   -16.2305 -16.2305 -16.1751 -16.1749 -16.0928 -16.0926 -15.9955 -15.9953
   -15.8922 -15.8921 -15.8183 -15.8181 -15.7686 -15.7684 -14.4699 -14.4699
    -2.6124  -2.6123  -2.5816  -2.5815  -2.4759  -2.4757  -2.4642  -2.4641
    -2.3107  -2.3105  -2.1691  -2.1690  -2.0626  -2.0624  -1.5414  -1.5414
    -1.2891  -1.2889  -1.1792  -1.1791  -0.9273  -0.9272  -0.4567  -0.4566
    -0.2293  -0.2291  -0.0658  -0.0657   0.0837   0.0842   0.4164   0.4165
     0.5358   0.5359   0.6739   0.6742   0.8815   0.8815   1.2577   1.2580
     1.3938   1.3938   1.4051   1.4053   1.6944   1.6945   2.0624   2.0626
     6.2764   6.2765   6.4212   6.4212   6.6369   6.6371   6.8731   6.8733
     7.0333   7.0338   7.1450   7.1452   7.2340   7.2343   7.3045   7.3052
     7.4749   7.4759   7.6539

          k =-0.0571-0.0892 0.0000 ( 28576 PWs)   bands (ev):

   -58.3002 -58.2991 -58.2970 -58.2962 -58.2904 -58.2903 -58.0114 -58.0096
   -33.4546 -33.4543 -33.4495 -33.4493 -33.4453 -33.4451 -33.0779 -33.0767
   -33.0530 -33.0527 -33.0472 -33.0472 -33.0423 -33.0413 -33.0383 -33.0377
   -33.0344 -33.0344 -33.0055 -33.0049 -32.8987 -32.8972 -32.6912 -32.6895
   -16.2944 -16.2943 -16.2305 -16.2302 -16.1443 -16.1442 -15.9414 -15.9412
   -15.7337 -15.7337 -15.6470 -15.6467 -15.5774 -15.5773 -14.3643 -14.3643
    -2.9460  -2.9460  -2.8652  -2.8648  -2.7193  -2.7192  -2.4819  -2.4819
    -2.2200  -2.2199  -1.9674  -1.9672  -1.7764  -1.7761  -1.6125  -1.6125
    -1.3201  -1.3199  -1.1963  -1.1963  -1.0051  -1.0050  -0.5206  -0.5204
    -0.4799  -0.4798  -0.3566  -0.3565   0.0120   0.0121   0.3297   0.3298
     0.7202   0.7202   1.0213   1.0222   1.2557   1.2561   1.3649   1.3649
     1.4499   1.4500   1.5649   1.5651   1.6478   1.6478   2.0947   2.0948
     5.8963   5.8964   6.0704   6.0706   6.2927   6.2931   6.4856   6.4858
     7.3685   7.3686   7.3864   7.3867   7.3981   7.3984   7.4060   7.4061
     7.5495   7.5517   7.6259

     the Fermi energy is     4.1534 ev

!    total energy              =   -1459.92449054 Ry
     estimated scf accuracy    <       0.00000055 Ry
     smearing contrib. (-TS)   =      -0.00000000 Ry
     internal energy E=F+TS    =   -1459.92449054 Ry

     convergence has been achieved in  10 iterations

     Using ACE for calculation of exact exchange

     total energy              =   -1459.93661135 Ry
     Harris-Foulkes estimate   =   -1459.93661187 Ry
     est. exchange err (dexx)  =       0.01212082 Ry
     - averaged Fock potential =      92.39252903 Ry
     + Fock energy (ACE)       =     -46.23213258 Ry

     EXX: now go back to refine exchange calculation

     total cpu time spent up to now is    17038.2 secs

     per-process dynamical memory:   415.8 Mb

     Self-consistent Calculation

     iteration #  1     ecut=    75.00 Ry     beta= 0.70
     Davidson diagonalization with overlap
     ethr =  1.45E-09,  avg # of iterations = 12.2

     total cpu time spent up to now is    17054.5 secs

     total energy              =   -1459.93620351 Ry
     estimated scf accuracy    <       0.00436046 Ry

     iteration #  2     ecut=    75.00 Ry     beta= 0.70
     Davidson diagonalization with overlap
     ethr =  2.27E-06,  avg # of iterations =  5.0

     total cpu time spent up to now is    17062.7 secs

     total energy              =   -1459.93662896 Ry
     estimated scf accuracy    <       0.01028735 Ry

     iteration #  3     ecut=    75.00 Ry     beta= 0.70
     Davidson diagonalization with overlap
     ethr =  2.27E-06,  avg # of iterations =  4.0

     total cpu time spent up to now is    17069.1 secs

     total energy              =   -1459.93844741 Ry
     estimated scf accuracy    <       0.00036587 Ry

     iteration #  4     ecut=    75.00 Ry     beta= 0.70
     Davidson diagonalization with overlap
     ethr =  1.91E-07,  avg # of iterations =  4.5

     total cpu time spent up to now is    17075.9 secs

     total energy              =   -1459.93859053 Ry
     estimated scf accuracy    <       0.00007422 Ry

     iteration #  5     ecut=    75.00 Ry     beta= 0.70
     Davidson diagonalization with overlap
     ethr =  3.87E-08,  avg # of iterations =  3.4

     total cpu time spent up to now is    17080.9 secs

     total energy              =   -1459.93859895 Ry
     estimated scf accuracy    <       0.00000823 Ry

     iteration #  6     ecut=    75.00 Ry     beta= 0.70
     Davidson diagonalization with overlap
     ethr =  4.29E-09,  avg # of iterations =  4.7

     total cpu time spent up to now is    17087.6 secs

     total energy              =   -1459.93860129 Ry
     estimated scf accuracy    <       0.00000251 Ry

     iteration #  7     ecut=    75.00 Ry     beta= 0.70
     Davidson diagonalization with overlap
     ethr =  1.31E-09,  avg # of iterations =  2.7

     total cpu time spent up to now is    17092.7 secs

     End of self-consistent calculation

          k = 0.0000 0.0000 0.0000 ( 28593 PWs)   bands (ev):

   -58.4293 -58.4260 -58.4215 -58.4170 -58.4134 -58.4128 -58.1416 -58.1409
   -33.2704 -33.2701 -33.2510 -33.2503 -33.2291 -33.2284 -33.1554 -33.1549
   -33.1334 -33.1328 -33.1141 -33.1138 -33.0515 -33.0469 -33.0400 -33.0305
   -33.0209 -33.0147 -33.0127 -33.0122 -32.8708 -32.8703 -32.6415 -32.6409
   -17.3764 -17.2194 -16.9759 -16.6805 -16.4001 -16.2504 -16.1257 -16.1252
   -15.6846 -15.6572 -15.6107 -15.5450 -15.5143 -15.4788 -14.4559 -14.4558
    -3.6836  -3.4031  -3.2278  -3.1038  -3.0144  -2.9071  -2.6605  -2.4326
    -2.3541  -2.2933  -1.8202  -1.6901  -1.6879  -1.6710  -1.6671  -1.6457
    -1.6441  -1.1807  -1.1804  -1.1082  -0.8327  -0.7520  -0.6051  -0.5058
    -0.4317  -0.3791  -0.2051   0.3079   0.3980   0.5788   0.6419   0.8547
     1.0747   1.1652   1.1875   1.4494   1.5064   1.5264   1.5918   1.7052
     1.7284   1.8926   1.9072   1.9376   2.0714   2.1851   2.2677   2.3547
     5.8534   5.9922   6.1969   6.2112   6.4448   6.4504   6.5015   6.5558
     6.5622   6.7035   6.7165   6.7558   6.8793   6.8831   6.8865   6.8972
     7.0053   7.0059   7.1332

          k = 0.0000 0.0297 0.0000 ( 28509 PWs)   bands (ev):

   -58.4180 -58.4150 -58.4110 -58.4070 -58.4036 -58.4032 -58.1312 -58.1306
   -33.2416 -33.2398 -33.2278 -33.2219 -33.2084 -33.2011 -33.1799 -33.1727
   -33.1701 -33.1697 -33.1595 -33.1465 -33.1243 -33.1197 -33.1178 -33.1107
   -33.1064 -33.1038 -33.0027 -33.0022 -32.8455 -32.8450 -32.7646 -32.7640
   -17.0876 -16.9487 -16.7323 -16.4678 -16.2059 -16.0703 -15.9935 -15.9863
   -15.7876 -15.7766 -15.7218 -15.6609 -15.6492 -15.6107 -14.5089 -14.5089
    -3.2859  -3.0432  -2.9167  -2.7608  -2.6918  -2.5497  -2.3628  -2.2810
    -2.2080  -2.1966  -2.0569  -1.9849  -1.9571  -1.9398  -1.8925  -1.6920
    -1.3831  -1.0726  -1.0718  -1.0157  -0.7067  -0.6221  -0.5863  -0.4392
    -0.3656  -0.2512  -0.1198   0.0033   0.0840   0.1109   0.1463   0.3685
     0.5257   0.7801   0.7956   1.0628   1.1173   1.1467   1.3420   1.4061
     1.5045   1.6188   1.7159   1.8502   2.0219   2.1365   2.2045   2.2563
     6.2662   6.3632   6.3758   6.3909   6.5233   6.5726   6.6231   6.6804
     6.7805   6.8050   6.8096   6.8499   6.8956   6.9705   7.0055   7.1692
     7.3295   7.3314   7.3708

          k = 0.0000 0.0594 0.0000 ( 28490 PWs)   bands (ev):

   -58.3945 -58.3926 -58.3902 -58.3878 -58.3840 -58.3840 -58.1103 -58.1097
   -33.4086 -33.4074 -33.4047 -33.4045 -33.3961 -33.3887 -33.1724 -33.1717
   -33.1593 -33.1573 -33.1432 -33.1414 -33.1187 -33.1179 -33.1075 -33.1072
   -33.0993 -33.0992 -32.9984 -32.9978 -32.9863 -32.9858 -32.7938 -32.7932
   -16.4452 -16.3944 -16.3143 -16.2226 -16.1284 -16.0277 -15.9293 -15.8554
   -15.8239 -15.8102 -15.7753 -15.7732 -15.7362 -15.7355 -14.4844 -14.4843
    -2.4884  -2.4361  -2.3844  -2.3631  -2.3517  -2.2710  -2.2408  -2.2208
    -2.1406  -2.0793  -2.0290  -1.9514  -1.9130  -1.8094  -1.6627  -1.6547
    -1.4635  -1.3813  -1.3682  -1.1782  -1.1484  -1.0423  -0.9782  -0.8161
    -0.5615  -0.4183  -0.1261   0.0311   0.0568   0.1897   0.2002   0.2396
     0.3184   0.3347   0.5181   0.6107   0.6450   0.6971   0.7641   0.8859
     1.0812   1.3307   1.5299   1.5306   1.7239   1.7280   2.0057   2.0145
     6.0444   6.0832   6.1836   6.2148   6.4564   6.7785   6.8088   6.9087
     7.0923   7.1454   7.2424   7.3075   7.3271   7.4267   7.5004   7.5078
     7.6067   7.6949   7.7282

          k = 0.0000-0.0892 0.0000 ( 28504 PWs)   bands (ev):

   -58.3807 -58.3807 -58.3803 -58.3803 -58.3743 -58.3742 -58.0999 -58.0992
   -33.5215 -33.5214 -33.5171 -33.5170 -33.5124 -33.5124 -33.1498 -33.1494
   -33.1232 -33.1231 -33.1184 -33.1182 -33.1114 -33.1112 -33.1100 -33.1100
   -33.1076 -33.1076 -33.0777 -33.0775 -32.9790 -32.9785 -32.7673 -32.7667
   -16.2890 -16.2890 -16.2145 -16.2144 -16.1003 -16.1002 -15.9419 -15.9419
   -15.7952 -15.7951 -15.6736 -15.6735 -15.5857 -15.5857 -14.3930 -14.3930
    -2.8948  -2.8948  -2.6805  -2.6805  -2.4543  -2.4542  -2.2092  -2.2091
    -1.8977  -1.8977  -1.8724  -1.8724  -1.6643  -1.6643  -1.4227  -1.4226
    -1.1672  -1.1672  -1.0857  -1.0856  -0.9922  -0.9921  -0.5524  -0.5524
    -0.4511  -0.4511  -0.2906  -0.2906   0.0345   0.0345   0.1344   0.1344
     0.2837   0.2838   0.5185   0.5185   0.5983   0.5983   0.7496   0.7496
     0.8713   0.8714   1.1783   1.1783   1.3645   1.3648   1.9757   1.9758
     5.9223   5.9225   6.1836   6.1838   6.5250   6.5252   6.8136   6.8137
     7.3248   7.3249   7.3370   7.3372   7.3506   7.3507   7.4040   7.4047
     7.7379   7.7386   7.8274

          k = 0.0190 0.0000 0.0000 ( 28592 PWs)   bands (ev):

   -58.4283 -58.4254 -58.4214 -58.4174 -58.4139 -58.4135 -58.1416 -58.1410
   -33.2739 -33.2738 -33.2533 -33.2528 -33.2297 -33.2294 -33.1551 -33.1549
   -33.1319 -33.1315 -33.1115 -33.1114 -33.0490 -33.0453 -33.0394 -33.0310
   -33.0225 -33.0171 -33.0121 -33.0116 -32.8705 -32.8699 -32.6416 -32.6410
   -17.2837 -17.1486 -16.9397 -16.6866 -16.4403 -16.2779 -16.1444 -16.1411
   -15.6856 -15.6808 -15.6034 -15.6016 -15.5336 -15.5064 -14.4617 -14.4616
    -3.5673  -3.4633  -3.2643  -3.1238  -2.9456  -2.9079  -2.4922  -2.3753
    -2.3400  -2.1785  -1.7366  -1.7066  -1.7057  -1.6792  -1.6774  -1.6466
    -1.6455  -1.1854  -1.1851  -1.1545  -0.7481  -0.6892  -0.5660  -0.4270
    -0.3436  -0.3228   0.0056   0.3462   0.4545   0.6112   0.6451   0.9021
     0.9287   0.9908   1.1798   1.3077   1.3855   1.4067   1.4122   1.4695
     1.6358   1.7335   1.8640   1.8661   1.9739   2.1061   2.1824   2.2592
     5.8989   5.9299   6.0933   6.2325   6.4439   6.4525   6.5621   6.5665
     6.6899   6.7007   6.7255   6.8483   6.8687   6.8761   6.8929   6.9448
     7.0024   7.0092   7.2555

          k = 0.0190 0.0297 0.0000 ( 28563 PWs)   bands (ev):

   -58.4171 -58.4145 -58.4110 -58.4075 -58.4040 -58.4038 -58.1312 -58.1306
   -33.2442 -33.2435 -33.2279 -33.2260 -33.2059 -33.2047 -33.1795 -33.1769
   -33.1707 -33.1610 -33.1564 -33.1536 -33.1225 -33.1211 -33.1148 -33.1114
   -33.1035 -33.1025 -33.0022 -33.0018 -32.8453 -32.8448 -32.7647 -32.7640
   -17.0055 -16.8845 -16.6971 -16.4696 -16.2431 -16.0880 -16.0019 -15.9960
   -15.7995 -15.7875 -15.7246 -15.7200 -15.6643 -15.6359 -14.5126 -14.5126
    -3.2040  -3.1228  -2.9307  -2.7976  -2.6087  -2.5602  -2.3550  -2.3082
    -2.2431  -2.2125  -2.1646  -2.0380  -1.9389  -1.9362  -1.7163  -1.5531
    -1.2356  -1.1016  -1.0693  -0.8319  -0.7143  -0.6785  -0.5703  -0.2882
    -0.2197  -0.1058  -0.0928   0.0008   0.0365   0.1108   0.1663   0.2685
     0.5126   0.7127   0.7563   0.9942   1.1067   1.1730   1.2903   1.3238
     1.3674   1.4956   1.6381   1.7798   1.9414   2.0539   2.1323   2.1677
     6.2965   6.3473   6.3544   6.3875   6.5194   6.5550   6.5766   6.7232
     6.7612   6.8307   6.8898   6.9600   6.9933   7.0091   7.0711   7.1895
     7.2711   7.3436   7.3870

          k = 0.0190 0.0594 0.0000 ( 28509 PWs)   bands (ev):

   -58.3940 -58.3924 -58.3902 -58.3882 -58.3842 -58.3841 -58.1103 -58.1097
   -33.4075 -33.4072 -33.4057 -33.4020 -33.3959 -33.3915 -33.1743 -33.1739
   -33.1604 -33.1591 -33.1433 -33.1422 -33.1188 -33.1175 -33.1072 -33.1056
   -33.0980 -33.0979 -32.9984 -32.9978 -32.9863 -32.9858 -32.7938 -32.7933
   -16.4176 -16.3657 -16.2846 -16.1934 -16.1030 -16.0135 -15.9426 -15.9327
   -15.8687 -15.8319 -15.7851 -15.7646 -15.7356 -15.7299 -14.4829 -14.4829
    -2.5137  -2.5124  -2.4655  -2.4206  -2.3458  -2.3158  -2.2783  -2.2463
    -2.2224  -2.1614  -2.1196  -2.0717  -1.9821  -1.8547  -1.6939  -1.6847
    -1.3850  -1.3813  -1.2734  -1.1166  -0.9557  -0.9468  -0.8804  -0.7239
    -0.4476  -0.3138  -0.2032   0.0049   0.0506   0.1235   0.1979   0.2755
     0.2904   0.3854   0.5341   0.6325   0.7110   0.7133   0.7957   0.9332
     1.1324   1.3794   1.5719   1.6007   1.7116   1.7157   2.0402   2.0458
     6.0551   6.0799   6.1177   6.2714   6.5611   6.8525   6.9153   6.9302
     7.0485   7.1415   7.2020   7.2313   7.2881   7.2882   7.4100   7.4469
     7.5433   7.5971   7.7232

          k = 0.0190-0.0892 0.0000 ( 28522 PWs)   bands (ev):

   -58.3807 -58.3807 -58.3803 -58.3803 -58.3743 -58.3742 -58.0998 -58.0992
   -33.5210 -33.5209 -33.5169 -33.5169 -33.5129 -33.5129 -33.1502 -33.1498
   -33.1236 -33.1235 -33.1182 -33.1181 -33.1116 -33.1113 -33.1104 -33.1103
   -33.1067 -33.1067 -33.0783 -33.0781 -32.9792 -32.9787 -32.7674 -32.7668
   -16.2916 -16.2915 -16.2186 -16.2186 -16.1091 -16.1090 -15.9404 -15.9404
   -15.7841 -15.7840 -15.6680 -15.6679 -15.5824 -15.5824 -14.3881 -14.3881
    -2.9126  -2.9126  -2.7203  -2.7203  -2.4598  -2.4597  -2.1834  -2.1833
    -2.0058  -2.0058  -1.9218  -1.9218  -1.8415  -1.8415  -1.7037  -1.7037
    -1.3439  -1.3438  -1.0522  -1.0522  -0.7093  -0.7093  -0.5538  -0.5538
    -0.4446  -0.4446  -0.3580  -0.3579   0.1647   0.1647   0.2708   0.2708
     0.4513   0.4514   0.5685   0.5685   0.7011   0.7011   0.8312   0.8313
     0.9812   0.9813   1.2765   1.2765   1.3779   1.3782   2.0036   2.0036
     5.9697   5.9700   6.1801   6.1803   6.4692   6.4695   6.7276   6.7278
     7.3326   7.3327   7.3443   7.3444   7.3576   7.3578   7.4332   7.4336
     7.5131   7.5135   7.7273

          k = 0.0190-0.0594 0.0000 ( 28509 PWs)   bands (ev):

   -58.3940 -58.3924 -58.3902 -58.3882 -58.3842 -58.3841 -58.1103 -58.1097
   -33.4075 -33.4072 -33.4057 -33.4020 -33.3959 -33.3915 -33.1743 -33.1739
[...]
   -16.2873 -16.2873 -16.2143 -16.2143 -16.1048 -16.1048 -15.9360 -15.9359
   -15.7805 -15.7804 -15.6643 -15.6643 -15.5790 -15.5790 -14.3867 -14.3867
    -2.9123  -2.9123  -2.7200  -2.7200  -2.4597  -2.4597  -2.1837  -2.1837
    -2.0071  -2.0071  -1.9225  -1.9225  -1.8421  -1.8420  -1.7044  -1.7044
    -1.3453  -1.3453  -1.0534  -1.0534  -0.7097  -0.7097  -0.5546  -0.5546
    -0.4455  -0.4455  -0.3586  -0.3586   0.1634   0.1634   0.2694   0.2695
     0.4499   0.4499   0.5667   0.5667   0.6997   0.6997   0.8290   0.8290
     0.9797   0.9797   1.2743   1.2743   1.3744   1.3744   1.9997   1.9997
     5.9670   5.9670   6.1763   6.1763   6.4651   6.4651   6.7235   6.7235
     7.3213   7.3213   7.3335   7.3335   7.3467   7.3467   7.4219   7.4221
     7.5050   7.5053   7.7191

          k = 0.0190-0.0594 0.0000 ( 28509 PWs)   bands (ev):

   -58.4151 -58.4137 -58.4114 -58.4093 -58.4043 -58.4042 -58.1332 -58.1331
   -33.4239 -33.4236 -33.4222 -33.4184 -33.4125 -33.4082 -33.1920 -33.1916
   -33.1779 -33.1766 -33.1606 -33.1594 -33.1363 -33.1350 -33.1249 -33.1233
   -33.1159 -33.1159 -33.0167 -33.0166 -33.0068 -33.0067 -32.8131 -32.8130
   -16.4142 -16.3619 -16.2806 -16.1895 -16.0990 -16.0097 -15.9385 -15.9287
   -15.8646 -15.8277 -15.7808 -15.7606 -15.7319 -15.7263 -14.4816 -14.4816
    -2.5142  -2.5134  -2.4661  -2.4212  -2.3460  -2.3158  -2.2787  -2.2473
    -2.2223  -2.1617  -2.1204  -2.0725  -1.9834  -1.8558  -1.6948  -1.6851
    -1.3861  -1.3814  -1.2740  -1.1174  -0.9561  -0.9474  -0.8810  -0.7243
    -0.4482  -0.3146  -0.2039   0.0041   0.0495   0.1222   0.1974   0.2747
     0.2893   0.3845   0.5329   0.6306   0.7087   0.7117   0.7941   0.9312
     1.1301   1.3771   1.5692   1.5978   1.7097   1.7138   2.0369   2.0425
     6.0527   6.0772   6.1150   6.2671   6.5558   6.8438   6.9066   6.9200
     7.0382   7.1319   7.1952   7.2235   7.2784   7.2795   7.4010   7.4382
     7.5349   7.5889   7.7118

          k = 0.0190-0.0297 0.0000 ( 28563 PWs)   bands (ev):

   -58.4382 -58.4357 -58.4320 -58.4283 -58.4242 -58.4241 -58.1540 -58.1539
   -33.2617 -33.2609 -33.2453 -33.2433 -33.2230 -33.2218 -33.1966 -33.1941
   -33.1876 -33.1779 -33.1735 -33.1708 -33.1399 -33.1385 -33.1325 -33.1291
   -33.1214 -33.1204 -33.0226 -33.0225 -32.8644 -32.8644 -32.7835 -32.7834
   -17.0024 -16.8812 -16.6938 -16.4663 -16.2396 -16.0842 -15.9975 -15.9917
   -15.7955 -15.7834 -15.7206 -15.7159 -15.6604 -15.6320 -14.5109 -14.5109
    -3.2053  -3.1241  -2.9319  -2.7988  -2.6100  -2.5615  -2.3550  -2.3083
    -2.2436  -2.2131  -2.1652  -2.0389  -1.9398  -1.9371  -1.7165  -1.5531
    -1.2360  -1.1026  -1.0702  -0.8324  -0.7147  -0.6791  -0.5710  -0.2885
    -0.2200  -0.1068  -0.0930   0.0003   0.0362   0.1101   0.1652   0.2687
     0.5123   0.7115   0.7550   0.9936   1.1056   1.1716   1.2882   1.3225
     1.3656   1.4931   1.6356   1.7777   1.9397   2.0521   2.1305   2.1654
     6.2932   6.3389   6.3460   6.3831   6.5116   6.5464   6.5702   6.7156
     6.7533   6.8238   6.8820   6.9533   6.9859   7.0022   7.0632   7.1813
     7.2636   7.3365   7.3798

          k = 0.0380 0.0000 0.0000 ( 28518 PWs)   bands (ev):

   -58.4467 -58.4450 -58.4424 -58.4399 -58.4352 -58.4352 -58.1644 -58.1643
   -33.2978 -33.2978 -33.2750 -33.2748 -33.2485 -33.2478 -33.1725 -33.1719
   -33.1469 -33.1466 -33.1246 -33.1245 -33.0598 -33.0579 -33.0547 -33.0497
   -33.0445 -33.0413 -33.0313 -33.0312 -32.8888 -32.8887 -32.6608 -32.6608
   -17.0258 -16.9546 -16.8413 -16.6963 -16.5404 -16.4062 -16.2250 -16.2229
   -15.7041 -15.6921 -15.6459 -15.6011 -15.5620 -15.5612 -14.4718 -14.4718
    -3.4573  -3.4510  -3.2633  -3.2139  -2.9794  -2.8948  -2.3741  -2.3712
    -1.8783  -1.7363  -1.7361  -1.6983  -1.6982  -1.6955  -1.6570  -1.6502
    -1.3562  -1.1957  -1.1956  -0.9217  -0.7402  -0.7027  -0.4699  -0.4118
    -0.2071   0.0512   0.1889   0.2946   0.4445   0.4901   0.5310   0.6232
     0.8030   0.8268   0.9293   0.9778   1.0930   1.1261   1.2516   1.2576
     1.4597   1.6156   1.8029   1.8186   1.8187   1.9163   1.9832   1.9998
     5.8782   5.8890   6.0899   6.1181   6.3434   6.4665   6.5676   6.5687
     6.7104   6.7124   6.8286   6.8316   6.8612   6.8893   6.9968   7.0020
     7.1325   7.2952   7.5187

          k = 0.0380 0.0297 0.0000 ( 28567 PWs)   bands (ev):

   -58.4359 -58.4344 -58.4321 -58.4300 -58.4250 -58.4250 -58.1540 -58.1539
   -33.2672 -33.2671 -33.2493 -33.2469 -33.2258 -33.2214 -33.1966 -33.1929
   -33.1824 -33.1823 -33.1725 -33.1708 -33.1415 -33.1376 -33.1310 -33.1278
   -33.1170 -33.1168 -33.0218 -33.0217 -32.8640 -32.8639 -32.7835 -32.7835
   -16.7757 -16.7079 -16.6021 -16.4704 -16.3307 -16.2065 -16.0715 -16.0670
   -15.8195 -15.8031 -15.7608 -15.7173 -15.6853 -15.6829 -14.5183 -14.5183
    -3.1288  -3.1216  -2.9340  -2.8837  -2.6392  -2.5412  -2.3138  -2.3104
    -2.2371  -2.2299  -2.2197  -2.1807  -2.0648  -2.0155  -1.3119  -1.2324
    -1.1286  -1.0068  -0.7335  -0.6550  -0.6363  -0.4228  -0.3827  -0.3458
    -0.1870  -0.1507  -0.0676  -0.0002   0.1192   0.1559   0.2094   0.3731
     0.6044   0.6130   0.6624   0.9172   0.9340   0.9409   0.9904   1.0738
     1.1055   1.2964   1.3980   1.6360   1.8377   1.9197   2.0169   2.0207
     6.3027   6.3047   6.4675   6.4953   6.5402   6.5500   6.6500   6.7326
     6.7556   6.8035   6.9018   6.9039   7.0646   7.0666   7.2814   7.2911
     7.3390   7.3544   7.3939

          k = 0.0380 0.0594 0.0000 ( 28551 PWs)   bands (ev):

   -58.4138 -58.4130 -58.4117 -58.4104 -58.4046 -58.4045 -58.1332 -58.1331
   -33.4247 -33.4224 -33.4189 -33.4158 -33.4137 -33.4130 -33.1956 -33.1956
   -33.1804 -33.1791 -33.1619 -33.1601 -33.1361 -33.1342 -33.1231 -33.1223
   -33.1134 -33.1133 -33.0167 -33.0166 -33.0066 -33.0065 -32.8131 -32.8130
   -16.3373 -16.2825 -16.2010 -16.1190 -16.0853 -16.0608 -15.9947 -15.9720
   -15.8885 -15.8663 -15.8234 -15.7962 -15.7537 -15.7280 -14.4788 -14.4788
    -2.5954  -2.5954  -2.5344  -2.5294  -2.4723  -2.4584  -2.4530  -2.3475
    -2.3461  -2.2673  -2.1524  -2.0469  -1.9944  -1.9564  -1.7216  -1.7162
    -1.5035  -1.2736  -1.1312  -1.0747  -0.9362  -0.9094  -0.6057  -0.4785
    -0.2982  -0.1552  -0.1051  -0.0769   0.0204   0.0550   0.1797   0.2856
     0.4331   0.5679   0.6340   0.6513   0.7957   0.8013   0.9883   1.0208
     1.1733   1.4062   1.5808   1.6283   1.6832   1.6846   2.0586   2.0601
     6.0381   6.1150   6.2732   6.5103   6.7078   6.7581   6.8885   6.9504
     6.9825   7.0138   7.0755   7.1017   7.1807   7.2610   7.3050   7.3185
     7.4817   7.5131   7.6389

          k = 0.0380-0.0892 0.0000 ( 28606 PWs)   bands (ev):

   -58.4020 -58.4019 -58.4015 -58.4015 -58.3943 -58.3942 -58.1227 -58.1226
   -33.5368 -33.5368 -33.5331 -33.5331 -33.5292 -33.5292 -33.1679 -33.1679
   -33.1428 -33.1427 -33.1367 -33.1367 -33.1295 -33.1294 -33.1284 -33.1284
   -33.1234 -33.1234 -33.0962 -33.0961 -33.0003 -33.0002 -32.7869 -32.7869
   -16.2893 -16.2893 -16.2222 -16.2222 -16.1267 -16.1266 -15.9359 -15.9359
   -15.7512 -15.7512 -15.6529 -15.6529 -15.5760 -15.5760 -14.3769 -14.3769
    -2.9430  -2.9430  -2.8114  -2.8114  -2.6119  -2.6119  -2.3589  -2.3589
    -2.1598  -2.1598  -2.0110  -2.0110  -1.8717  -1.8717  -1.7211  -1.7211
    -1.3937  -1.3937  -1.0841  -1.0841  -0.8482  -0.8482  -0.5438  -0.5438
    -0.4787  -0.4787  -0.4039  -0.4039   0.0383   0.0383   0.3564   0.3565
     0.7243   0.7244   0.9385   0.9385   0.9936   0.9936   1.0826   1.0827
     1.2612   1.2612   1.4251   1.4252   1.5187   1.5187   2.0479   2.0480
     5.9898   5.9898   6.1165   6.1166   6.3250   6.3250   6.5464   6.5464
     7.3246   7.3246   7.3395   7.3396   7.3525   7.3527   7.3654   7.3654
     7.4820   7.4830   7.6150

          k = 0.0380-0.0594 0.0000 ( 28551 PWs)   bands (ev):

   -58.4138 -58.4130 -58.4117 -58.4104 -58.4046 -58.4045 -58.1332 -58.1331
   -33.4247 -33.4224 -33.4189 -33.4158 -33.4137 -33.4130 -33.1956 -33.1956
   -33.1804 -33.1791 -33.1619 -33.1601 -33.1361 -33.1342 -33.1231 -33.1223
   -33.1134 -33.1133 -33.0167 -33.0166 -33.0066 -33.0065 -32.8131 -32.8130
   -16.3373 -16.2825 -16.2010 -16.1190 -16.0853 -16.0608 -15.9947 -15.9720
   -15.8885 -15.8663 -15.8234 -15.7962 -15.7537 -15.7280 -14.4788 -14.4788
    -2.5954  -2.5954  -2.5344  -2.5294  -2.4723  -2.4584  -2.4530  -2.3475
    -2.3461  -2.2673  -2.1524  -2.0469  -1.9944  -1.9564  -1.7216  -1.7162
    -1.5035  -1.2736  -1.1312  -1.0747  -0.9362  -0.9094  -0.6057  -0.4785
    -0.2982  -0.1552  -0.1051  -0.0769   0.0204   0.0550   0.1797   0.2856
     0.4331   0.5679   0.6340   0.6513   0.7957   0.8013   0.9883   1.0208
     1.1733   1.4062   1.5808   1.6283   1.6832   1.6846   2.0586   2.0602
     6.0381   6.1150   6.2732   6.5103   6.7078   6.7581   6.8885   6.9504
     6.9825   7.0138   7.0755   7.1017   7.1807   7.2610   7.3050   7.3185
     7.4817   7.5131   7.6385

          k = 0.0380-0.0297 0.0000 ( 28567 PWs)   bands (ev):

   -58.4359 -58.4344 -58.4321 -58.4300 -58.4250 -58.4250 -58.1540 -58.1539
   -33.2672 -33.2671 -33.2493 -33.2469 -33.2258 -33.2214 -33.1966 -33.1929
   -33.1824 -33.1823 -33.1725 -33.1708 -33.1415 -33.1376 -33.1310 -33.1278
   -33.1170 -33.1168 -33.0218 -33.0217 -32.8640 -32.8639 -32.7835 -32.7835
   -16.7757 -16.7079 -16.6021 -16.4704 -16.3307 -16.2065 -16.0715 -16.0670
   -15.8195 -15.8031 -15.7608 -15.7173 -15.6853 -15.6829 -14.5183 -14.5183
    -3.1288  -3.1216  -2.9340  -2.8837  -2.6392  -2.5412  -2.3138  -2.3104
    -2.2371  -2.2299  -2.2197  -2.1807  -2.0648  -2.0155  -1.3119  -1.2324
    -1.1286  -1.0068  -0.7335  -0.6550  -0.6363  -0.4228  -0.3827  -0.3458
    -0.1870  -0.1507  -0.0676  -0.0002   0.1192   0.1559   0.2094   0.3731
     0.6044   0.6130   0.6624   0.9172   0.9340   0.9409   0.9904   1.0738
     1.1055   1.2964   1.3980   1.6360   1.8377   1.9197   2.0169   2.0207
     6.3027   6.3047   6.4675   6.4953   6.5402   6.5500   6.6500   6.7326
     6.7556   6.8035   6.9018   6.9039   7.0646   7.0666   7.2814   7.2912
     7.3390   7.3544   7.3939

          k =-0.0571 0.0000 0.0000 ( 28572 PWs)   bands (ev):

   -58.4434 -58.4434 -58.4430 -58.4430 -58.4358 -58.4357 -58.1644 -58.1643
   -33.3010 -33.3010 -33.2771 -33.2771 -33.2490 -33.2490 -33.1721 -33.1721
   -33.1456 -33.1456 -33.1223 -33.1223 -33.0539 -33.0538 -33.0506 -33.0505
   -33.0495 -33.0495 -33.0308 -33.0307 -32.8884 -32.8884 -32.6609 -32.6608
   -16.7408 -16.7407 -16.7152 -16.7152 -16.6845 -16.6845 -16.3090 -16.3090
   -15.6731 -15.6731 -15.6352 -15.6352 -15.5954 -15.5954 -14.4780 -14.4780
    -3.4466  -3.4466  -3.2273  -3.2273  -2.9691  -2.9690  -2.3862  -2.3862
    -1.7497  -1.7496  -1.7075  -1.7075  -1.6588  -1.6588  -1.1996  -1.1996
    -1.0298  -1.0297  -0.9754  -0.9754  -0.7824  -0.7824  -0.5579  -0.5579
    -0.3324  -0.3324   0.0518   0.0518   0.4081   0.4081   0.7542   0.7543
     0.7602   0.7602   0.8620   0.8620   0.9695   0.9695   1.2458   1.2458
     1.4623   1.4623   1.7162   1.7162   1.8033   1.8033   1.8847   1.8847
     5.8621   5.8621   6.0984   6.0984   6.3754   6.3754   6.5741   6.5741
     6.7151   6.7151   6.8188   6.8189   6.8769   6.8769   6.9944   6.9944
     7.6324   7.6325   7.7179

          k =-0.0571 0.0297 0.0000 ( 28548 PWs)   bands (ev):

   -58.4331 -58.4330 -58.4327 -58.4327 -58.4254 -58.4254 -58.1540 -58.1539
   -33.2699 -33.2699 -33.2500 -33.2500 -33.2251 -33.2251 -33.1919 -33.1919
   -33.1810 -33.1810 -33.1749 -33.1749 -33.1393 -33.1393 -33.1285 -33.1285
   -33.1151 -33.1150 -33.0213 -33.0213 -32.8638 -32.8637 -32.7836 -32.7835
   -16.5068 -16.5068 -16.4881 -16.4881 -16.4662 -16.4661 -16.1599 -16.1599
   -15.7742 -15.7742 -15.7465 -15.7465 -15.7175 -15.7175 -14.5221 -14.5221
    -3.1181  -3.1181  -2.8979  -2.8979  -2.6291  -2.6290  -2.3045  -2.3045
    -2.2600  -2.2600  -2.1977  -2.1977  -2.0641  -2.0641  -1.1989  -1.1989
    -0.9465  -0.9465  -0.6535  -0.6535  -0.3384  -0.3384  -0.2352  -0.2352
     0.0026   0.0026   0.1280   0.1280   0.1922   0.1922   0.2151   0.2151
     0.3434   0.3434   0.6117   0.6117   0.7379   0.7379   0.8716   0.8716
     1.1514   1.1514   1.5059   1.5060   1.8178   1.8178   1.9774   1.9774
     6.3124   6.3124   6.4976   6.4976   6.6619   6.6619   6.7113   6.7114
     6.7602   6.7602   6.8836   6.8836   7.0242   7.0242   7.3413   7.3414
     7.5179   7.5186   7.6292

          k =-0.0571 0.0594 0.0000 ( 28586 PWs)   bands (ev):

   -58.4124 -58.4123 -58.4119 -58.4119 -58.4047 -58.4046 -58.1332 -58.1331
   -33.4228 -33.4228 -33.4182 -33.4182 -33.4130 -33.4130 -33.1974 -33.1974
   -33.1811 -33.1811 -33.1612 -33.1612 -33.1355 -33.1354 -33.1218 -33.1218
   -33.1122 -33.1122 -33.0167 -33.0166 -33.0065 -33.0064 -32.8131 -32.8131
   -16.2257 -16.2257 -16.1714 -16.1714 -16.0898 -16.0898 -15.9942 -15.9941
   -15.8894 -15.8894 -15.8162 -15.8162 -15.7665 -15.7665 -14.4775 -14.4774
    -2.6200  -2.6200  -2.5931  -2.5931  -2.4895  -2.4895  -2.4715  -2.4714
    -2.3254  -2.3254  -2.1848  -2.1848  -2.0788  -2.0787  -1.5597  -1.5596
    -1.3065  -1.3064  -1.1931  -1.1931  -0.9453  -0.9452  -0.4728  -0.4728
    -0.2448  -0.2448  -0.0813  -0.0813   0.0667   0.0668   0.3991   0.3991
     0.5221   0.5221   0.6586   0.6586   0.8615   0.8615   1.2381   1.2382
     1.3741   1.3741   1.3834   1.3835   1.6713   1.6713   2.0365   2.0365
     6.2670   6.2670   6.4070   6.4070   6.6178   6.6178   6.8490   6.8490
     6.9947   6.9948   7.1102   7.1103   7.2053   7.2053   7.2698   7.2703
     7.4439   7.4443   7.6193

          k =-0.0571-0.0892 0.0000 ( 28576 PWs)   bands (ev):

   -58.4020 -58.4019 -58.4015 -58.4015 -58.3943 -58.3942 -58.1227 -58.1226
   -33.5374 -33.5374 -33.5331 -33.5331 -33.5285 -33.5284 -33.1678 -33.1677
   -33.1432 -33.1431 -33.1371 -33.1371 -33.1295 -33.1295 -33.1281 -33.1281
   -33.1242 -33.1242 -33.0960 -33.0960 -33.0005 -33.0004 -32.7871 -32.7870
   -16.2885 -16.2885 -16.2260 -16.2260 -16.1395 -16.1395 -15.9370 -15.9370
   -15.7332 -15.7332 -15.6470 -15.6470 -15.5767 -15.5767 -14.3720 -14.3720
    -2.9489  -2.9489  -2.8697  -2.8697  -2.7247  -2.7247  -2.4944  -2.4944
    -2.2340  -2.2339  -1.9839  -1.9839  -1.7928  -1.7928  -1.6317  -1.6316
    -1.3358  -1.3358  -1.2119  -1.2119  -1.0261  -1.0261  -0.5386  -0.5386
    -0.4997  -0.4997  -0.3759  -0.3759  -0.0057  -0.0057   0.3139   0.3139
     0.7033   0.7033   1.0029   1.0029   1.2294   1.2294   1.3376   1.3376
     1.4256   1.4256   1.5423   1.5423   1.6286   1.6286   2.0630   2.0630
     5.8946   5.8946   6.0629   6.0629   6.2791   6.2791   6.4702   6.4702
     7.3412   7.3412   7.3492   7.3492   7.3594   7.3594   7.3671   7.3672
     7.5041   7.5063   7.5937

     the Fermi energy is     4.1152 ev

!    total energy              =   -1459.93915301 Ry
     estimated scf accuracy    <       0.00000021 Ry
     smearing contrib. (-TS)   =      -0.00000000 Ry
     internal energy E=F+TS    =   -1459.93915301 Ry

     convergence has been achieved in   3 iterations

     Using ACE for calculation of exact exchange

!!   total energy              =   -1459.93915328 Ry
     Harris-Foulkes estimate   =   -1459.93915348 Ry
     est. exchange err (dexx)  =       0.00000028 Ry
     - averaged Fock potential =      92.49871381 Ry
     + Fock energy (ACE)       =     -46.24937628 Ry

     EXX self-consistency reached

     Forces acting on atoms (cartesian axes, Ry/au):

     atom    1 type  2   force =    -0.01067718    0.00000009   -0.00545245
     atom    2 type  2   force =    -0.00820371    0.00000017   -0.00830269
     atom    3 type  2   force =    -0.03954717   -0.00000018   -0.00873721
     atom    4 type  2   force =    -0.11185896    0.00000021    0.05778812
     atom    5 type  2   force =     0.00554385    0.00000033    0.00570723
     atom    6 type  2   force =    -0.00578807   -0.00000055   -0.00596046
     atom    7 type  2   force =     0.00534824    0.00000029   -0.00557898
     atom    8 type  2   force =    -0.00743148   -0.00000046    0.00736126
     atom    9 type  2   force =     0.00534774    0.00000004    0.00557951
     atom   10 type  2   force =    -0.00743239   -0.00000025   -0.00736059
     atom   11 type  2   force =     0.00554267   -0.00000005   -0.00570800
     atom   12 type  2   force =    -0.00578713   -0.00000018    0.00595961
     atom   13 type  2   force =    -0.03955095   -0.00000011    0.00873972
     atom   14 type  2   force =    -0.11186073   -0.00000037   -0.05777919
     atom   15 type  2   force =    -0.01067858    0.00000055    0.00545474
     atom   16 type  2   force =    -0.00820151    0.00000011    0.00830234
     atom   17 type  1   force =     0.16828130    0.00000021   -0.01476072
     atom   18 type  1   force =     0.00285972   -0.00000002   -0.00261689
     atom   19 type  1   force =     0.00133493    0.00000011    0.00031998
     atom   20 type  1   force =     0.00013901    0.00000006    0.00001489
     atom   21 type  1   force =     0.00014204    0.00000016   -0.00002491
     atom   22 type  1   force =     0.00133443    0.00000003   -0.00032163
     atom   23 type  1   force =     0.00285860    0.00000007    0.00262022
     atom   24 type  1   force =     0.16828534   -0.00000026    0.01475610

     Total force =     0.305377     Total SCF correction =     0.001068

     Writing all to output data dir ./calc.save/

     init_run     :      2.56s CPU      2.81s WALL (       1 calls)
     electrons    :    374.57s CPU    383.68s WALL (       6 calls)
     forces       :      0.73s CPU      0.75s WALL (       1 calls)

     Called by init_run:
     wfcinit      :      2.07s CPU      2.22s WALL (       1 calls)
     potinit      :      0.10s CPU      0.10s WALL (       1 calls)
     hinit0       :      0.34s CPU      0.40s WALL (       1 calls)

     Called by electrons:
     c_bands      :    353.65s CPU    361.45s WALL (      47 calls)
     sum_band     :     20.26s CPU     20.80s WALL (      47 calls)
     v_of_rho     :      0.50s CPU      0.51s WALL (      49 calls)
     mix_rho      :      0.05s CPU      0.05s WALL (      47 calls)

     Called by c_bands:
     init_us_2    :      0.94s CPU      0.99s WALL (    1920 calls)
     init_us_2:cp :      0.94s CPU      0.99s WALL (    1920 calls)
     cegterg      :    348.74s CPU    356.38s WALL (     943 calls)

     Called by *egterg:
     cdiaghg      :    128.76s CPU    129.65s WALL (    6593 calls)
     h_psi        :    163.64s CPU    168.32s WALL (    6713 calls)
     g_psi        :      0.44s CPU      0.45s WALL (    5750 calls)

     Called by h_psi:
     h_psi:calbec :     14.85s CPU     15.38s WALL (    6713 calls)
     vloc_psi     :    131.77s CPU    135.75s WALL (    6713 calls)
     add_vuspsi   :      9.85s CPU      9.94s WALL (    6713 calls)

     General routines
     calbec       :     20.77s CPU     21.44s WALL (   10780 calls)
     fft          :      0.53s CPU      0.61s WALL (     493 calls)
     ffts         :      0.02s CPU      0.03s WALL (      47 calls)
     fftw         :    145.36s CPU    149.68s WALL (  795806 calls)
     fftc         :  47432.50s CPU  48192.76s WALL (******** calls)
     fftcw        :      7.29s CPU      7.44s WALL (   41400 calls)

     Parallel routines
     fft_scatt_xy :   1102.58s CPU   1117.68s WALL (******** calls)
     fft_scatt_yz :  39130.89s CPU  39804.75s WALL (******** calls)

     EXX routines
     exx_grid     :      0.00s CPU      0.01s WALL (       1 calls)
     exxinit      :     56.98s CPU     65.62s WALL (       6 calls)
     vexx         :  50135.01s CPU  50935.53s WALL (     120 calls)
     matcalc      :      5.66s CPU      5.78s WALL (    3987 calls)
     aceupdate    :      0.14s CPU      0.14s WALL (     120 calls)
     vexxace      :      7.74s CPU      7.86s WALL (    3647 calls)
     aceinit      :  50135.36s CPU  50935.88s WALL (     120 calls)

     PWSCF        :     14h 2m CPU     14h16m WALL


   This run was terminated on:   8:18:55   3Dec2022            

=------------------------------------------------------------------------------=
   JOB DONE.
=------------------------------------------------------------------------------=
