
     Program PWSCF v.7.0 starts on  3Dec2022 at 16:23: 9 

     This program is part of the open-source Quantum ESPRESSO suite
     for quantum simulation of materials; please cite
         "P. Giannozzi et al., J. Phys.:Condens. Matter 21 395502 (2009);
         "P. Giannozzi et al., J. Phys.:Condens. Matter 29 465901 (2017);
         "P. Giannozzi et al., J. Chem. Phys. 152 154105 (2020);
          URL http://www.quantum-espresso.org", 
     in publications or presentations arising from this work. More details at
     http://www.quantum-espresso.org/quote

     Parallel version (MPI), running on    24 processors

     MPI processes distributed on     1 nodes
     R & G space division:  proc/nbgrp/npool/nimage =      24
     360242 MiB available memory on the printing compute node when the environment starts

     Reading input from pw.inp
Warning: card &CELL ignored
Warning: card / ignored

     Current dimensions of program PWSCF are:
     Max number of different atomic species (ntypx) = 10
     Max number of k-points (npk) =  40000
     Max angular momentum in pseudopotentials (lmaxx) =  4
     Message from routine cell_base_init:
     DEPRECATED: use true lattice parameter, not A to a.u. conversion factor

     IMPORTANT: XC functional enforced from input :
     Exchange-correlation= VDW-DF
                           (   1   4   4   0   1   0   0)
     Any further DFT definition will be discarded
     Please, verify this is what you really want


     Subspace diagonalization in iterative solution of the eigenvalue problem:
     one sub-group per band group will be used
     scalapack distributed-memory algorithm (size of sub-group:  4*  4 procs)


     Parallelization info
     --------------------
     sticks:   dense  smooth     PW     G-vecs:    dense   smooth      PW
     Min        1217    1217    331                33948    33948    4812
     Max        1219    1219    333                33949    33949    4813
     Sum       29211   29211   7953               814775   814775  115509

     Using Slab Decomposition



     bravais-lattice index     =            0
     lattice parameter (alat)  =       1.0000  a.u.
     unit-cell volume          =    2133.3241 (a.u.)^3
     number of atoms/cell      =           24
     number of atomic types    =            1
     number of electrons       =        96.00
     number of Kohn-Sham states=           62
     kinetic-energy cutoff     =     200.0000  Ry
     charge density cutoff     =     800.0000  Ry
     scf convergence threshold =      1.0E-06
     mixing beta               =       0.7000
     number of iterations used =            8  plain     mixing
     Exchange-correlation= VDW-DF
                           (   1   4   4   0   1   0   0)

     celldm(1)=   1.000000  celldm(2)=   0.000000  celldm(3)=   0.000000
     celldm(4)=   0.000000  celldm(5)=   0.000000  celldm(6)=   0.000000

     crystal axes: (cart. coord. in units of alat)
               a(1) = (  28.687375   0.000000   0.000000 )  
               a(2) = (   0.000000  16.000000   0.000000 )  
               a(3) = (   0.000000   0.000000   4.647785 )  

     reciprocal axes: (cart. coord. in units 2 pi/alat)
               b(1) = (  0.034859  0.000000  0.000000 )  
               b(2) = (  0.000000  0.062500  0.000000 )  
               b(3) = (  0.000000  0.000000  0.215156 )  


     PseudoPot. # 1 for C  read from file:
     .././06_C_4_1.2_1.2_pbe_n_v1.0.upf
     MD5 check sum: 7e0e17a2517474b8bea671dc4b65026c
     Pseudo is Norm-conserving + core correction, Zval =  4.0
     Generated using ONCVPSP code by D. R. Hamann
     Using radial grid of 1246 points,  4 beta functions with: 
                l(1) =   0
                l(2) =   0
                l(3) =   1
                l(4) =   1

     atomic species   valence    mass     pseudopotential
        C              4.00    12.00000     C ( 1.00)

     No symmetry found



   Cartesian axes

     site n.     atom                  positions (alat units)
         1           C   tau(   1) = (  11.8436874   8.0000000   0.0000000  )
         2           C   tau(   2) = (  10.9444353  10.4706746   0.0000000  )
         3           C   tau(   3) = (   6.0781563  11.3287309   0.0000000  )
         4           C   tau(   4) = (   4.3881153   9.3146185   0.0000000  )
         5           C   tau(   5) = (   6.0781563   4.6712691   0.0000000  )
         6           C   tau(   6) = (   8.6674493   4.2147069   0.0000000  )
         7           C   tau(   7) = (   9.9218437  11.3287309   2.3238926  )
         8           C   tau(   8) = (   7.3325507  11.7852931   2.3238926  )
         9           C   tau(   9) = (   4.1563126   8.0000000   2.3238926  )
        10           C   tau(  10) = (   5.0555647   5.5293254   2.3238926  )
        11           C   tau(  11) = (   9.9218437   4.6712691   2.3238926  )
        12           C   tau(  12) = (  11.6118847   6.6853815   2.3238926  )
        13           C   tau(  13) = (  24.5310621   8.0000000   0.0000000  )
        14           C   tau(  14) = (  23.6318101  10.4706746   0.0000000  )
        15           C   tau(  15) = (  18.7655311  11.3287309   0.0000000  )
        16           C   tau(  16) = (  17.0754901   9.3146185   0.0000000  )
        17           C   tau(  17) = (  18.7655311   4.6712691   0.0000000  )
        18           C   tau(  18) = (  21.3548240   4.2147069   0.0000000  )
        19           C   tau(  19) = (  22.6092184  11.3287309   2.3238926  )
        20           C   tau(  20) = (  20.0199254  11.7852931   2.3238926  )
        21           C   tau(  21) = (  16.8436874   8.0000000   2.3238926  )
        22           C   tau(  22) = (  17.7429394   5.5293254   2.3238926  )
        23           C   tau(  23) = (  22.6092184   4.6712691   2.3238926  )
        24           C   tau(  24) = (  24.2992594   6.6853815   2.3238926  )

     number of k points=     5  Fermi-Dirac smearing, width (Ry)=  0.0020
                       cart. coord. in units 2pi/alat
        k(    1) = (   0.0000000   0.0000000   0.0107578), wk =   0.4000000
        k(    2) = (   0.0000000   0.0000000   0.0322734), wk =   0.4000000
        k(    3) = (   0.0000000   0.0000000   0.0537891), wk =   0.4000000
        k(    4) = (   0.0000000   0.0000000   0.0753047), wk =   0.4000000
        k(    5) = (   0.0000000   0.0000000   0.0968203), wk =   0.4000000

     Dense  grid:   814775 G-vectors     FFT dimensions: ( 270, 150,  45)

     Estimated max dynamical RAM per process >      73.15 MB

     Estimated total dynamical RAM >       1.71 GB

     Initial potential from superposition of free atoms

     starting charge      95.9989, renormalised to      96.0000


     %%%%%%%%%%%%%%%%%%%%%%%%%%%%%%%%%%%%%%%%%%%%%%%%%%%%%%%%%%%%%%%%%%%%%%%%
     %                                                                      %
     % You are using vdW-DF, which was implemented by the Thonhauser group. %
     % Please cite the following two papers that made this development      %
     % possible and the two reviews that describe the various versions:     %
     %                                                                      %
     %   T. Thonhauser et al., PRL 115, 136402 (2015).                      %
     %   T. Thonhauser et al., PRB 76, 125112 (2007).                       %
     %   K. Berland et al., Rep. Prog. Phys. 78, 066501 (2015).             %
     %   D.C. Langreth et al., J. Phys.: Condens. Matter 21, 084203 (2009). %
     %                                                                      %
     %                                                                      %
     % If you are calculating the stress with vdW-DF, please also cite:     %
     %                                                                      %
     %   R. Sabatini et al., J. Phys.: Condens. Matter 24, 424209 (2012).   %
     %                                                                      %
     %%%%%%%%%%%%%%%%%%%%%%%%%%%%%%%%%%%%%%%%%%%%%%%%%%%%%%%%%%%%%%%%%%%%%%%%


     Starting wfcs are random

     total cpu time spent up to now is       10.9 secs

     per-process dynamical memory:    99.0 Mb

     Self-consistent Calculation

     iteration #  1     ecut=   200.00 Ry     beta= 0.70
     Davidson diagonalization with overlap
     ethr =  1.00E-02,  avg # of iterations = 14.6

     total cpu time spent up to now is       28.9 secs

     total energy              =    -289.76590008 Ry
     estimated scf accuracy    <       2.75126061 Ry

     iteration #  2     ecut=   200.00 Ry     beta= 0.70
     Davidson diagonalization with overlap
     ethr =  2.87E-03,  avg # of iterations =  3.6

     total cpu time spent up to now is       34.7 secs

     total energy              =    -290.18303283 Ry
     estimated scf accuracy    <       0.55901897 Ry

     iteration #  3     ecut=   200.00 Ry     beta= 0.70
     Davidson diagonalization with overlap
     ethr =  5.82E-04,  avg # of iterations =  3.8

     total cpu time spent up to now is       40.5 secs

     total energy              =    -290.34296522 Ry
     estimated scf accuracy    <       0.25766171 Ry

     iteration #  4     ecut=   200.00 Ry     beta= 0.70
     Davidson diagonalization with overlap
     ethr =  2.68E-04,  avg # of iterations =  8.4

     total cpu time spent up to now is       46.4 secs

     total energy              =    -290.35664267 Ry
     estimated scf accuracy    <       0.49804337 Ry

     iteration #  5     ecut=   200.00 Ry     beta= 0.70
     Davidson diagonalization with overlap
     ethr =  2.68E-04,  avg # of iterations =  6.2

     total cpu time spent up to now is       51.2 secs

     total energy              =    -290.40496159 Ry
     estimated scf accuracy    <       0.05494787 Ry

     iteration #  6     ecut=   200.00 Ry     beta= 0.70
     Davidson diagonalization with overlap
     ethr =  5.72E-05,  avg # of iterations =  5.8

     total cpu time spent up to now is       56.1 secs

     total energy              =    -290.41160348 Ry
     estimated scf accuracy    <       0.03179951 Ry

     iteration #  7     ecut=   200.00 Ry     beta= 0.70
     Davidson diagonalization with overlap
     ethr =  3.31E-05,  avg # of iterations =  4.8

     total cpu time spent up to now is       60.7 secs

     total energy              =    -290.41425560 Ry
     estimated scf accuracy    <       0.00467301 Ry

     iteration #  8     ecut=   200.00 Ry     beta= 0.70
     Davidson diagonalization with overlap
     ethr =  4.87E-06,  avg # of iterations =  8.2

     total cpu time spent up to now is       66.2 secs

     total energy              =    -290.41497401 Ry
     estimated scf accuracy    <       0.00013580 Ry

     iteration #  9     ecut=   200.00 Ry     beta= 0.70
     Davidson diagonalization with overlap
     ethr =  1.41E-07,  avg # of iterations =  3.8

     total cpu time spent up to now is       71.6 secs

     total energy              =    -290.41501431 Ry
     estimated scf accuracy    <       0.00003031 Ry

     iteration # 10     ecut=   200.00 Ry     beta= 0.70
     Davidson diagonalization with overlap
     ethr =  3.16E-08,  avg # of iterations =  2.0

     total cpu time spent up to now is       76.4 secs

     total energy              =    -290.41501935 Ry
     estimated scf accuracy    <       0.00000518 Ry

     iteration # 11     ecut=   200.00 Ry     beta= 0.70
     Davidson diagonalization with overlap
     ethr =  5.39E-09,  avg # of iterations =  2.8

     total cpu time spent up to now is       81.3 secs

     End of self-consistent calculation

          k = 0.0000 0.0000 0.0108 (102029 PWs)   bands (ev):

   -17.3240 -17.2717 -16.3372 -16.2652 -16.2565 -16.2224 -13.8799 -13.8079
   -13.7807 -13.7398 -10.9921 -10.8911  -9.9369  -9.9137  -6.7794  -6.7214
    -6.6255  -6.6074  -5.5852  -5.2059  -4.6484  -4.3693  -4.3608  -4.1341
    -4.1225  -4.1083  -3.3546  -3.3280  -3.3196  -3.3097  -1.9567  -1.8713
    -1.8157  -1.7684  -1.3825  -1.3673  -1.3534  -1.3428  -0.8022  -0.5796
    -0.3062  -0.2617  -0.2084  -0.1050  -0.0841  -0.0736   2.1365   2.4747
     4.3691   4.7047   5.7158   6.5394   6.7894   6.7999   7.1147   7.3272
     7.3965   7.4994   7.7413   8.0093   8.2236   8.4134

          k = 0.0000 0.0000 0.0323 (101997 PWs)   bands (ev):

   -16.9637 -16.9121 -15.9849 -15.9140 -15.9054 -15.8719 -13.5458 -13.4753
   -13.4489 -13.4089 -10.6870 -10.5891  -9.6779  -9.6550  -6.6675  -6.6265
    -6.5398  -6.5244  -5.4863  -5.4623  -5.1882  -4.8123  -4.5752  -4.5421
    -4.5287  -4.5282  -4.3931  -4.1962  -4.1899  -4.0227  -2.8285  -2.7718
    -2.7080  -2.6548  -1.6927  -1.6208  -1.5798  -1.5325  -1.2915  -1.2652
    -0.8314  -0.8231  -0.4592  -0.2408   0.0328   0.2116   2.4979   2.8286
     4.2607   4.5663   6.1450   6.5789   6.6575   6.9671   7.1883   7.1961
     7.5787   7.7582   7.7909   7.8583   7.8712   8.0363

          k = 0.0000 0.0000 0.0538 (101929 PWs)   bands (ev):

   -16.2474 -16.1971 -15.2849 -15.2163 -15.2078 -15.1754 -12.8865 -12.8194
   -12.7942 -12.7565 -10.0796  -9.9874  -9.3953  -9.3695  -7.3304  -7.3089
    -7.2665  -7.2620  -7.1750  -7.1464  -5.4002  -5.3757  -5.3016  -5.2955
    -5.1344  -5.1205  -5.0827  -5.0769  -4.3893  -4.0692  -3.3739  -3.1883
    -3.1638  -3.0485  -3.0142  -2.9872  -1.9209  -1.8594  -1.7196  -1.5722
    -1.5170  -1.3884   0.1662   0.3624   0.6293   0.7890   3.1784   3.4237
     3.6891   3.8805   5.8876   5.9095   6.1781   6.2901   6.9058   6.9895
     7.0843   7.1826   7.2171   7.8385   7.9119   8.0927

          k = 0.0000 0.0000 0.0753 (101795 PWs)   bands (ev):

   -15.1852 -15.1370 -14.2492 -14.1842 -14.1757 -14.1452 -11.9448 -11.8854
   -11.8605 -11.8293 -10.3520 -10.3160  -9.1798  -9.1272  -9.0891  -9.0808
    -9.0648  -9.0490  -7.4174  -7.3999  -7.0114  -6.9688  -6.9529  -6.9266
    -4.9505  -4.9274  -4.8600  -4.8590  -4.8308  -4.7908  -3.8980  -3.8336
    -3.1332  -3.0613  -3.0473  -3.0259  -2.5977  -2.3078  -1.3856  -1.0921
    -1.0250  -0.8004   0.8978   0.9935   1.2833   1.3757   2.1888   2.4402
     4.2313   4.5093   4.7424   4.8171   5.0274   5.0502   5.9444   6.0013
     6.0709   6.2022   7.5554   7.6045   8.6262   9.4202

          k = 0.0000 0.0000 0.0968 (101691 PWs)   bands (ev):

   -13.7979 -13.7524 -12.9099 -12.8507 -12.8416 -12.8137 -12.1333 -12.0914
   -11.4808 -11.4553 -11.4279 -11.4109 -10.1405 -10.1050 -10.0732 -10.0512
    -8.8053  -8.7547  -8.7370  -8.7054  -7.9808  -7.9077  -6.5237  -6.4610
    -6.4160  -6.4037  -5.0940  -5.0854  -4.2107  -4.1970  -4.1517  -4.1407
    -3.4843  -3.4817  -3.4618  -3.4580  -1.3723  -1.0231  -0.2885  -0.0245
     0.0631   0.2848   0.3651   0.6765   0.9223   1.0249   1.2049   1.3275
     4.2052   4.3002   4.4648   4.5683   4.8880   5.0313   5.0973   5.2465
     5.4782   5.7065   6.6684   6.8317  10.4629  10.9078

     the Fermi energy is     3.5564 ev

!    total energy              =    -290.41502007 Ry
     estimated scf accuracy    <       0.00000083 Ry
     smearing contrib. (-TS)   =      -0.00007129 Ry
     internal energy E=F+TS    =    -290.41494878 Ry

     The total energy is F=E-TS. E is the sum of the following terms:
     one-electron contribution =    -628.35313178 Ry
     hartree contribution      =     349.65863626 Ry
     xc contribution           =    -105.97003363 Ry
     ewald contribution        =      94.24958037 Ry

     convergence has been achieved in  11 iterations

     Forces acting on atoms (cartesian axes, Ry/au):

     atom    1 type  1   force =     0.02574290   -0.00925303   -0.00000168
     atom    2 type  1   force =     0.03102806    0.03843443    0.00001178
     atom    3 type  1   force =    -0.01556218    0.04397468    0.00000474
     atom    4 type  1   force =    -0.04945815    0.00903120   -0.00000308
     atom    5 type  1   force =    -0.03156805   -0.03730990    0.00000306
     atom    6 type  1   force =     0.01909564   -0.04900398   -0.00000266
     atom    7 type  1   force =     0.03256790    0.03681474   -0.00000129
     atom    8 type  1   force =    -0.01924513    0.04754459   -0.00000882
     atom    9 type  1   force =    -0.04570133    0.00904014    0.00001009
     atom   10 type  1   force =    -0.03230910   -0.03921354    0.00000221
     atom   11 type  1   force =     0.01509185   -0.04283116   -0.00001303
     atom   12 type  1   force =     0.03903180   -0.01174204    0.00000284
     atom   13 type  1   force =     0.04569602   -0.00902269    0.00000393
     atom   14 type  1   force =     0.03229541    0.03920166    0.00000204
     atom   15 type  1   force =    -0.01512429    0.04283188    0.00000627
     atom   16 type  1   force =    -0.03907332    0.01173063   -0.00000760
     atom   17 type  1   force =    -0.03258141   -0.03683218    0.00000391
     atom   18 type  1   force =     0.01925743   -0.04754202    0.00000975
     atom   19 type  1   force =     0.03159706    0.03731724   -0.00000289
     atom   20 type  1   force =    -0.01906357    0.04898624    0.00000386
     atom   21 type  1   force =    -0.02573468    0.00926555   -0.00001179
     atom   22 type  1   force =    -0.03101961   -0.03839010   -0.00001275
     atom   23 type  1   force =     0.01557600   -0.04399776   -0.00000377
     atom   24 type  1   force =     0.04946074   -0.00903458    0.00000487

     Total force =     0.230520     Total SCF correction =     0.002119

     Writing all to output data dir ./calc.save/

     init_run     :     10.61s CPU     10.87s WALL (       1 calls)
     electrons    :     65.07s CPU     70.50s WALL (       1 calls)
     forces       :      2.63s CPU      2.70s WALL (       1 calls)

     Called by init_run:
     wfcinit      :      1.48s CPU      1.61s WALL (       1 calls)
     potinit      :      7.07s CPU      7.14s WALL (       1 calls)
     hinit0       :      1.81s CPU      1.85s WALL (       1 calls)

     Called by electrons:
     c_bands      :     54.08s CPU     58.49s WALL (      11 calls)
     sum_band     :      6.38s CPU      6.95s WALL (      11 calls)
     v_of_rho     :     10.73s CPU     11.18s WALL (      12 calls)
     mix_rho      :      0.13s CPU      0.13s WALL (      11 calls)
     vdW_kernel   :      5.25s CPU      5.27s WALL (       1 calls)

     Called by c_bands:
     init_us_2    :      0.51s CPU      0.52s WALL (     120 calls)
     init_us_2:cp :      0.51s CPU      0.52s WALL (     120 calls)
     cegterg      :     52.57s CPU     56.96s WALL (      55 calls)

     Called by *egterg:
     cdiaghg      :      1.62s CPU      1.65s WALL (     375 calls)
     h_psi        :     43.17s CPU     47.57s WALL (     380 calls)
     g_psi        :      0.23s CPU      0.23s WALL (     320 calls)

     Called by h_psi:
     h_psi:calbec :      2.84s CPU      2.87s WALL (     380 calls)
     vloc_psi     :     37.28s CPU     41.62s WALL (     380 calls)
     add_vuspsi   :      2.81s CPU      2.82s WALL (     380 calls)

     General routines
     calbec       :      3.10s CPU      3.14s WALL (     400 calls)
     fft          :      2.98s CPU      3.44s WALL (     780 calls)
     ffts         :      0.03s CPU      0.04s WALL (      11 calls)
     fftw         :     39.69s CPU     44.31s WALL (   25360 calls)

     Parallel routines

     PWSCF        :   1m18.54s CPU   1m25.67s WALL


   This run was terminated on:  16:24:35   3Dec2022            

=------------------------------------------------------------------------------=
   JOB DONE.
=------------------------------------------------------------------------------=
