
.Version 9.6.2 of ABINIT 
.(MPI version, prepared for a x86_64_linux_gnu10.3 computer) 

.Copyright (C) 1998-2021 ABINIT group . 
 ABINIT comes with ABSOLUTELY NO WARRANTY.
 It is free software, and you are welcome to redistribute it
 under certain conditions (GNU General Public License,
 see ~abinit/COPYING or http://www.gnu.org/copyleft/gpl.txt).

 ABINIT is a project of the Universite Catholique de Louvain,
 Corning Inc. and other collaborators, see ~abinit/doc/developers/contributors.txt .
 Please read https://docs.abinit.org/theory/acknowledgments for suggested
 acknowledgments of the ABINIT effort.
 For more information, see https://www.abinit.org .

.Starting date : Fri  6 Jan 2023.
- ( at 17h20 )
  
- input  file    -> NiC2O4.in
- output file    -> NiC2O4.out
- root for input  files -> abi
- root for output files -> abo


 Symmetries : space group P1 (#  1); Bravais aP (primitive triclinic)
================================================================================
 Values of the parameters that define the memory need of the present run
     intxc =       0    ionmov =       0      iscf =       7    lmnmax =       6
     lnmax =       6     mgfft =     180  mpssoang =       3    mqgrid =    7101
     natom =      14  nloc_mem =       1    nspden =       2   nspinor =       1
    nsppol =       2      nsym =       1    n1xccc =       0    ntypat =       3
    occopt =       3   xclevel =       2
-    mband =          65        mffmem =           1         mkmem =           1
       mpw =       93632          nfft =     1944000          nkpt =           4
================================================================================
P This job should need less than                    1273.927 Mbytes of memory.
  Rough estimation (10% accuracy) of disk space for files :
_ WF disk file :   1485.861 Mbytes ; DEN or POT disk file :     29.665 Mbytes.
================================================================================

--------------------------------------------------------------------------------
------------- Echo of variables that govern the present computation ------------
--------------------------------------------------------------------------------
-
- outvars: echo of selected default values                                      
-   iomode0 =  0 , fftalg0 =312 , wfoptalg0 =  0
-
- outvars: echo of global parameters not present in the input file              
-  max_nthreads =    0
-
 -outvars: echo values of preprocessed input variables --------
-          iomode           1
            acell      1.0100000000E+00  1.0100000000E+00  1.0100000000E+00 Bohr
              amu      5.86900000E+01  1.20110000E+01  1.59994000E+01
        autoparal           1
     densfor_pred           6
           diemac      1.00000000E+00
           diemix      4.00000000E-01
             ecut      2.50000000E+02 Hartree
           ecutsm      5.00000000E-01 Hartree
-          fftalg         312
              ixc     -263267
              kpt      2.50000000E-01  2.50000000E-01  2.50000000E-01
                      -2.50000000E-01  2.50000000E-01  2.50000000E-01
                       2.50000000E-01 -2.50000000E-01  2.50000000E-01
                      -2.50000000E-01 -2.50000000E-01  2.50000000E-01
         kptrlatt        2    0    0      0    2    0      0    0    2
          kptrlen      1.94174588E+01
P           mkmem           1
            natom          14
            nband          65
            ngfft         150     144     180
             nkpt           4
-           npfft           2
-        np_spkpt           8
           nspden           2
           nsppol           2
            nstep          60
             nsym           1
           ntypat           3
              occ      1.000000  1.000000  1.000000  1.000000  1.000000  1.000000
                       1.000000  1.000000  1.000000  1.000000  1.000000  1.000000
                       1.000000  1.000000  1.000000  1.000000  1.000000  1.000000
                       1.000000  1.000000  1.000000  1.000000  1.000000  1.000000
                       1.000000  1.000000  1.000000  1.000000  1.000000  1.000000
                       1.000000  1.000000  1.000000  1.000000  1.000000  1.000000
                       1.000000  1.000000  1.000000  1.000000  1.000000  1.000000
                       1.000000  1.000000  1.000000  1.000000  1.000000  1.000000
                       1.000000  1.000000  0.000000  0.000000  0.000000  0.000000
                       0.000000  0.000000  0.000000  0.000000  0.000000  0.000000
                       0.000000  0.000000  0.000000  0.000000  0.000000
                       1.000000  1.000000  1.000000  1.000000  1.000000  1.000000
                       1.000000  1.000000  1.000000  1.000000  1.000000  1.000000
                       1.000000  1.000000  1.000000  1.000000  1.000000  1.000000
                       1.000000  1.000000  1.000000  1.000000  1.000000  1.000000
                       1.000000  1.000000  1.000000  1.000000  1.000000  1.000000
                       1.000000  1.000000  1.000000  1.000000  1.000000  1.000000
                       1.000000  1.000000  1.000000  1.000000  1.000000  1.000000
                       1.000000  1.000000  1.000000  1.000000  1.000000  1.000000
                       1.000000  1.000000  0.000000  0.000000  0.000000  0.000000
                       0.000000  0.000000  0.000000  0.000000  0.000000  0.000000
                       0.000000  0.000000  0.000000  0.000000  0.000000
                       1.000000  1.000000  1.000000  1.000000  1.000000  1.000000
                       1.000000  1.000000  1.000000  1.000000  1.000000  1.000000
                       1.000000  1.000000  1.000000  1.000000  1.000000  1.000000
                       1.000000  1.000000  1.000000  1.000000  1.000000  1.000000
                       1.000000  1.000000  1.000000  1.000000  1.000000  1.000000
                       1.000000  1.000000  1.000000  1.000000  1.000000  1.000000
                       1.000000  1.000000  1.000000  1.000000  1.000000  1.000000
                       1.000000  1.000000  1.000000  1.000000  1.000000  1.000000
                       1.000000  1.000000  0.000000  0.000000  0.000000  0.000000
                       0.000000  0.000000  0.000000  0.000000  0.000000  0.000000
                       0.000000  0.000000  0.000000  0.000000  0.000000
                       1.000000  1.000000  1.000000  1.000000  1.000000  1.000000
                       1.000000  1.000000  1.000000  1.000000  1.000000  1.000000
                       1.000000  1.000000  1.000000  1.000000  1.000000  1.000000
                       1.000000  1.000000  1.000000  1.000000  1.000000  1.000000
                       1.000000  1.000000  1.000000  1.000000  1.000000  1.000000
                       1.000000  1.000000  1.000000  1.000000  1.000000  1.000000
                       1.000000  1.000000  1.000000  1.000000  1.000000  1.000000
                       1.000000  1.000000  1.000000  1.000000  1.000000  1.000000
                       1.000000  1.000000  0.000000  0.000000  0.000000  0.000000
                       0.000000  0.000000  0.000000  0.000000  0.000000  0.000000
                       0.000000  0.000000  0.000000  0.000000  0.000000
                       1.000000  1.000000  1.000000  1.000000  1.000000  1.000000
                       1.000000  1.000000  1.000000  1.000000  1.000000  1.000000
                       1.000000  1.000000  1.000000  1.000000  1.000000  1.000000
                       1.000000  1.000000  1.000000  1.000000  1.000000  1.000000
                       1.000000  1.000000  1.000000  1.000000  1.000000  1.000000
                       1.000000  1.000000  1.000000  1.000000  1.000000  1.000000
                       1.000000  1.000000  1.000000  1.000000  1.000000  1.000000
                       1.000000  1.000000  1.000000  1.000000  1.000000  1.000000
                       1.000000  1.000000  0.000000  0.000000  0.000000  0.000000
                       0.000000  0.000000  0.000000  0.000000  0.000000  0.000000
                       0.000000  0.000000  0.000000  0.000000  0.000000
                       1.000000  1.000000  1.000000  1.000000  1.000000  1.000000
                       1.000000  1.000000  1.000000  1.000000  1.000000  1.000000
                       1.000000  1.000000  1.000000  1.000000  1.000000  1.000000
                       1.000000  1.000000  1.000000  1.000000  1.000000  1.000000
                       1.000000  1.000000  1.000000  1.000000  1.000000  1.000000
                       1.000000  1.000000  1.000000  1.000000  1.000000  1.000000
                       1.000000  1.000000  1.000000  1.000000  1.000000  1.000000
                       1.000000  1.000000  1.000000  1.000000  1.000000  1.000000
                       1.000000  1.000000  0.000000  0.000000  0.000000  0.000000
                       0.000000  0.000000  0.000000  0.000000  0.000000  0.000000
                       0.000000  0.000000  0.000000  0.000000  0.000000
                       1.000000  1.000000  1.000000  1.000000  1.000000  1.000000
                       1.000000  1.000000  1.000000  1.000000  1.000000  1.000000
                       1.000000  1.000000  1.000000  1.000000  1.000000  1.000000
                       1.000000  1.000000  1.000000  1.000000  1.000000  1.000000
                       1.000000  1.000000  1.000000  1.000000  1.000000  1.000000
                       1.000000  1.000000  1.000000  1.000000  1.000000  1.000000
                       1.000000  1.000000  1.000000  1.000000  1.000000  1.000000
                       1.000000  1.000000  1.000000  1.000000  1.000000  1.000000
                       1.000000  1.000000  0.000000  0.000000  0.000000  0.000000
                       0.000000  0.000000  0.000000  0.000000  0.000000  0.000000
                       0.000000  0.000000  0.000000  0.000000  0.000000
                       1.000000  1.000000  1.000000  1.000000  1.000000  1.000000
                       1.000000  1.000000  1.000000  1.000000  1.000000  1.000000
                       1.000000  1.000000  1.000000  1.000000  1.000000  1.000000
                       1.000000  1.000000  1.000000  1.000000  1.000000  1.000000
                       1.000000  1.000000  1.000000  1.000000  1.000000  1.000000
                       1.000000  1.000000  1.000000  1.000000  1.000000  1.000000
                       1.000000  1.000000  1.000000  1.000000  1.000000  1.000000
                       1.000000  1.000000  1.000000  1.000000  1.000000  1.000000
                       1.000000  1.000000  0.000000  0.000000  0.000000  0.000000
                       0.000000  0.000000  0.000000  0.000000  0.000000  0.000000
                       0.000000  0.000000  0.000000  0.000000  0.000000
           occopt           3
           ortalg          -2
        paral_kgb           1
           prtden           0
           prteig           0
          prtkden           1
            prtwf           0
            rprim      0.0000000000E+00  1.0137047334E+01  0.0000000000E+00
                       9.6126033568E+00  0.0000000000E+00  0.0000000000E+00
                       0.0000000000E+00 -5.7455806104E+00 -9.8776109362E+00
           shiftk      5.00000000E-01  5.00000000E-01  5.00000000E-01
          spgroup           1
           spinat      0.0000000000E+00  0.0000000000E+00  1.0000000000E+00
                       0.0000000000E+00  0.0000000000E+00  1.0000000000E+00
                       0.0000000000E+00  0.0000000000E+00  1.0000000000E+00
                       0.0000000000E+00  0.0000000000E+00  1.0000000000E+00
                       0.0000000000E+00  0.0000000000E+00  1.0000000000E+00
                       0.0000000000E+00  0.0000000000E+00  1.0000000000E+00
                       0.0000000000E+00  0.0000000000E+00  1.0000000000E+00
                       0.0000000000E+00  0.0000000000E+00  1.0000000000E+00
                       0.0000000000E+00  0.0000000000E+00  1.0000000000E+00
                       0.0000000000E+00  0.0000000000E+00  1.0000000000E+00
                       0.0000000000E+00  0.0000000000E+00  1.0000000000E+00
                       0.0000000000E+00  0.0000000000E+00  1.0000000000E+00
                       0.0000000000E+00  0.0000000000E+00  1.0000000000E+00
                       0.0000000000E+00  0.0000000000E+00  1.0000000000E+00
           toldfe      1.00000000E-06 Hartree
           tsmear      1.00000000E-03 Hartree
            typat      1  1  2  2  2  2  3  3  3  3  3  3  3  3
          usekden           1
         wfoptalg         114
              wtk        0.25000    0.25000    0.25000    0.25000
           xangst      2.5688191589E+00 -1.5354173061E+00 -2.6396383243E+00
                       0.0000000000E+00  0.0000000000E+00  0.0000000000E+00
                       3.1878377869E+00  1.2029288494E+00 -2.1688799463E+00
                       6.1901862799E-01  2.6795912002E+00 -4.7075837803E-01
                       1.9498005309E+00  1.1441738940E+00 -3.1103967023E+00
                       4.5186196897E+00 -3.3248845676E-01 -4.8085182706E+00
                       1.5030366404E+00  2.2569169708E+00 -3.5822954041E+00
                       4.0718557993E+00 -1.4452315335E+00 -4.3366195688E+00
                       3.6346016773E+00  9.0185772620E-02 -1.6969812445E+00
                       1.0657825185E+00  3.7923342769E+00 -9.4265707982E-01
                       3.6768844407E+00  2.3558578465E+00 -1.9336881716E+00
                       1.1080652818E+00  1.5266622030E+00 -7.0595015273E-01
                       1.4607538770E+00 -8.7551031063E-03 -3.3455884770E+00
                       4.0295730359E+00  8.2044054040E-01 -4.5733264959E+00
            xcart      4.8543646952E+00 -2.9015182083E+00 -4.9881935228E+00
                       0.0000000000E+00  0.0000000000E+00  0.0000000000E+00
                       6.0241403732E+00  2.2732060826E+00 -4.0985891136E+00
                       1.1697756781E+00  5.0636935164E+00 -8.8960440924E-01
                       3.6845890171E+00  2.1621753081E+00 -5.8777979320E+00
                       8.5389537123E+00 -6.2831212562E-01 -9.0867826364E+00
                       2.8403276181E+00  4.2649549795E+00 -6.7695572409E+00
                       7.6946923132E+00 -2.7310917969E+00 -8.1950233275E+00
                       6.8684017723E+00  1.7042641134E-01 -3.2068298047E+00
                       2.0140370771E+00  7.1664731877E+00 -1.7813637181E+00
                       6.9483046151E+00  4.4519261379E+00 -3.6541410707E+00
                       2.0939399200E+00  2.8849734611E+00 -1.3340524521E+00
                       2.7604247752E+00 -1.6544747136E-02 -6.3222459749E+00
                       7.6147894703E+00  1.5504079297E+00 -8.6423345935E+00
             xred     -1.5340306078E-17  5.0000000000E-01  5.0000000000E-01
                       0.0000000000E+00  0.0000000000E+00  0.0000000000E+00
                       4.5488100000E-01  6.2048700000E-01  4.1082900000E-01
                       5.4511900000E-01  1.2048700000E-01  8.9171000000E-02
                       5.4511900000E-01  3.7951300000E-01  5.8917100000E-01
                       4.5488100000E-01  8.7951300000E-01  9.1082900000E-01
                       8.0116400000E-01  2.9255400000E-01  6.7855800000E-01
                       1.9883600000E-01  7.9255400000E-01  8.2144200000E-01
                       1.9883600000E-01  7.0744600000E-01  3.2144200000E-01
                       8.0116400000E-01  2.0744600000E-01  1.7855800000E-01
                       6.4242900000E-01  7.1567600000E-01  3.6627900000E-01
                       3.5757100000E-01  2.1567600000E-01  1.3372100000E-01
                       3.5757100000E-01  2.8432400000E-01  6.3372100000E-01
                       6.4242900000E-01  7.8432400000E-01  8.6627900000E-01
            znucl       28.00000    6.00000    8.00000

================================================================================

 chkinp: Checking input parameters for consistency.

================================================================================
== DATASET  1 ==================================================================
-   mpi_nproc: 16, omp_nthreads: -1 (-1 if OMP is not activated)


--- !DatasetInfo
iteration_state: {dtset: 1, }
dimensions: {natom: 14, nkpt: 4, mband: 65, nsppol: 2, nspinor: 1, nspden: 2, mpw: 93632, }
cutoff_energies: {ecut: 250.0, pawecutdg:  -1.0, }
electrons: {nelect:   1.00000000E+02, charge:   0.00000000E+00, occopt:   3.00000000E+00, tsmear:   1.00000000E-03, }
meta: {optdriver: 0, ionmov: 0, optcell: 0, iscf: 7, paral_kgb: 1, }
...

 Real(R)+Recip(G) space primitive vectors, cartesian coordinates (Bohr,Bohr^-1):
 R(1)=  0.0000000 10.2384178  0.0000000  G(1)=  0.0000000  0.0976713 -0.0568132
 R(2)=  9.7087294  0.0000000  0.0000000  G(2)=  0.1030001  0.0000000  0.0000000
 R(3)=  0.0000000 -5.8030364 -9.9763870  G(3)=  0.0000000  0.0000000 -0.1002367
 Unit cell volume ucvol=  9.9167310E+02 bohr^3
 Angles (23,13,12)=  9.00000000E+01  1.20185586E+02  9.00000000E+01 degrees

 getcut: wavevector=  0.0000  0.0000  0.0000  ngfft= 150 144 180
         ecut(hartree)=    250.000   => boxcut(ratio)=   2.05842

--- Pseudopotential description ------------------------------------------------
- pspini: atom type   1  psp file is ../Ni.pot
- pspatm: opening atomic psp file    ../Ni.pot
- Ni    ONCVPSP-4.0.1  r_core=   2.18101   2.18101   2.24723
- 28.00000  18.00000    200312                znucl, zion, pspdat
    8   11    2    4       600   0.00000      pspcod,pspxc,lmax,lloc,mmax,r2well
    5.99000000000000    0.00000000000000    0.00000000000000   rchrg,fchrg,qchrg
     nproj     2     2     2
     extension_switch     1
  pspatm : epsatm=   38.47316822
         --- l  ekb(1:nproj) -->
             0   -3.440917   -0.196078
             1   -5.406223   -1.725842
             2   -7.274254   -2.503385
 pspatm: atomic psp has been read  and splines computed

- pspini: atom type   2  psp file is ../C.pot
- pspatm: opening atomic psp file    ../C.pot
- C     ONCVPSP-4.0.1  r_core=   1.42727   1.38521
-  6.00000   4.00000    200312                znucl, zion, pspdat
    8   11    1    4       600   0.00000      pspcod,pspxc,lmax,lloc,mmax,r2well
    5.99000000000000    0.00000000000000    0.00000000000000   rchrg,fchrg,qchrg
     nproj     2     2
     extension_switch     1
  pspatm : epsatm=    2.26998732
         --- l  ekb(1:nproj) -->
             0    7.571912    0.889574
             1   -3.169338   -0.856835
 pspatm: atomic psp has been read  and splines computed

- pspini: atom type   3  psp file is ../O.pot
- pspatm: opening atomic psp file    ../O.pot
- O     ONCVPSP-4.0.1  r_core=   1.28926   1.47061
-  8.00000   6.00000    200312                znucl, zion, pspdat
    8   11    1    4       600   0.00000      pspcod,pspxc,lmax,lloc,mmax,r2well
    5.99000000000000    0.00000000000000    0.00000000000000   rchrg,fchrg,qchrg
     nproj     2     2
     extension_switch     1
  pspatm : epsatm=    3.44365635
         --- l  ekb(1:nproj) -->
             0    9.802940    1.339963
             1   -3.661294   -1.085684
 pspatm: atomic psp has been read  and splines computed

   1.13575537E+04                                ecore*ucvol(ha*bohr**3)
--------------------------------------------------------------------------------

_setup2: Arith. and geom. avg. npw (full set) are   93631.500   93631.500

================================================================================

--- !BeginCycle
iteration_state: {dtset: 1, }
solver: {iscf: 7, nstep: 60, nline: 4, wfoptalg: 114, }
tolerances: {toldfe: 1.00E-06, }
...

     iter   Etot(hartree)     deltaE(h) residm    vres2    magn
 ETOT  1  -456.90436533869    -4.57E+02 1.67E-02 3.15E+05 2.000
 ETOT  2  -456.10778923930     7.97E-01 7.09E-04 8.75E+05 4.000
 ETOT  3  -457.97313987577    -1.87E+00 5.16E-03 2.48E+05 2.341
 ETOT  4  -458.59202988178    -6.19E-01 8.73E-04 2.08E+05 2.171
 ETOT  5  -458.81518098856    -2.23E-01 4.68E-04 1.33E+05 2.676
 ETOT  6  -458.93730377729    -1.22E-01 1.31E-04 1.05E+05 3.518
 ETOT  7  -458.98261656689    -4.53E-02 8.11E-05 9.64E+04 3.941
 ETOT  8  -458.98758211779    -4.97E-03 8.24E-05 9.04E+04 3.993
 ETOT  9  -459.02460647910    -3.70E-02 1.11E-04 6.45E+04 4.000
 ETOT 10  -459.10139764288    -7.68E-02 3.76E-04 4.32E+04 4.000
 ETOT 11  -459.12149741064    -2.01E-02 5.33E-05 3.25E+04 4.000
 ETOT 12  -459.12305484263    -1.56E-03 4.55E-05 1.76E+04 4.000
 ETOT 13  -459.11415830244     8.90E-03 4.31E-04 1.33E+04 4.000
 ETOT 14  -459.12394439179    -9.79E-03 3.54E-05 8.45E+03 4.000
 ETOT 15  -459.12269080070     1.25E-03 1.08E-04 2.79E+03 4.000
 ETOT 16  -459.12643160812    -3.74E-03 2.38E-05 1.03E+03 4.000
 ETOT 17  -459.12623282325     1.99E-04 2.11E-05 6.96E+02 4.000
 ETOT 18  -459.12684113134    -6.08E-04 1.09E-05 3.76E+02 4.000
 ETOT 19  -459.12697455988    -1.33E-04 4.94E-06 1.78E+02 4.000
 ETOT 20  -459.12702702308    -5.25E-05 5.26E-06 6.61E+01 4.000
 ETOT 21  -459.12712656839    -9.95E-05 2.19E-06 2.08E+01 4.000
 ETOT 22  -459.12714045776    -1.39E-05 2.28E-06 1.07E+01 4.000
 ETOT 23  -459.12714625348    -5.80E-06 1.02E-06 5.04E+00 4.000
 ETOT 24  -459.12714789838    -1.64E-06 1.01E-06 2.12E+00 4.000
 ETOT 25  -459.12714864477    -7.46E-07 4.57E-07 1.32E+00 4.000
 ETOT 26  -459.12714933060    -6.86E-07 4.39E-07 7.22E-01 4.000

 At SCF step   26, etot is converged : 
  for the second time, diff in etot=  6.858E-07 < toldfe=  1.000E-06

Result for kinetic energy density :

--------------------------------------------------------------------------------
 Total kinetic energy density [Ha/Bohr^3]
      Maximum=    1.9592E+01  at reduced coord.    0.0000    0.9931    0.4889
      Minimum=    9.0756E-04  at reduced coord.    0.0000    0.0000    0.0000
   Integrated=    2.3642E+02
 Spin up density      [Ha/Bohr^3]
      Maximum=    1.0236E+01  at reduced coord.    0.0200    0.9792    0.0111
      Minimum=    4.4925E-04  at reduced coord.    0.0000    0.0000    0.0000
   Integrated=    1.2831E+02
 Spin down density    [Ha/Bohr^3]
      Maximum=    9.8480E+00  at reduced coord.    0.0000    0.0000    0.0000
      Minimum=    4.5830E-04  at reduced coord.    0.9933    0.0069    0.0056
   Integrated=    1.0812E+02
 Magnetization (spin up - spin down) [Ha/Bohr^3]
      Maximum=    3.0021E+00  at reduced coord.    0.0267    0.0208    0.4722
      Minimum=   -2.9272E-01  at reduced coord.    0.0000    0.0000    0.0000
   Integrated=    2.0188E+01
 Relative magnetization (=zeta, between -1 and 1)
      Maximum=    3.2188E-01  at reduced coord.    0.0800    0.6042    0.1222
      Minimum=   -2.0582E-02  at reduced coord.    0.8067    0.6042    0.2000
--------------------------------------------------------------------------------

 Cartesian components of stress tensor (hartree/bohr^3)
  sigma(1 1)=  1.28152507E-02  sigma(3 2)= -1.90753360E-05
  sigma(2 2)=  1.29282056E-02  sigma(3 1)= -6.91434484E-08
  sigma(3 3)=  1.27628521E-02  sigma(2 1)= -3.61951040E-08


--- !ResultsGS
iteration_state: {dtset: 1, }
comment   : Summary of ground state results
lattice_vectors:
- [  0.0000000,  10.2384178,   0.0000000, ]
- [  9.7087294,   0.0000000,   0.0000000, ]
- [  0.0000000,  -5.8030364,  -9.9763870, ]
lattice_lengths: [  10.23842,    9.70873,   11.54138, ]
lattice_angles: [ 90.000, 120.186,  90.000, ] # degrees, (23, 13, 12)
lattice_volume:   9.9167310E+02
convergence: {deltae: -6.858E-07, res2:  7.216E-01, residm:  4.390E-07, diffor: null, }
etotal    :  -4.59127149E+02
entropy   :   0.00000000E+00
fermie    :   1.04482838E-01
cartesian_stress_tensor: # hartree/bohr^3
- [  1.28152507E-02,  -3.61951040E-08,  -6.91434484E-08, ]
- [ -3.61951040E-08,   1.29282056E-02,  -1.90753360E-05, ]
- [ -6.91434484E-08,  -1.90753360E-05,   1.27628521E-02, ]
pressure_GPa:  -3.7763E+02
xred      :
- [ -1.5340E-17,   5.0000E-01,   5.0000E-01, Ni]
- [  0.0000E+00,   0.0000E+00,   0.0000E+00, Ni]
- [  4.5488E-01,   6.2049E-01,   4.1083E-01,  C]
- [  5.4512E-01,   1.2049E-01,   8.9171E-02,  C]
- [  5.4512E-01,   3.7951E-01,   5.8917E-01,  C]
- [  4.5488E-01,   8.7951E-01,   9.1083E-01,  C]
- [  8.0116E-01,   2.9255E-01,   6.7856E-01,  O]
- [  1.9884E-01,   7.9255E-01,   8.2144E-01,  O]
- [  1.9884E-01,   7.0745E-01,   3.2144E-01,  O]
- [  8.0116E-01,   2.0745E-01,   1.7856E-01,  O]
- [  6.4243E-01,   7.1568E-01,   3.6628E-01,  O]
- [  3.5757E-01,   2.1568E-01,   1.3372E-01,  O]
- [  3.5757E-01,   2.8432E-01,   6.3372E-01,  O]
- [  6.4243E-01,   7.8432E-01,   8.6628E-01,  O]
cartesian_forces: # hartree/bohr
- [ -1.41751621E-06,   1.48345520E-06,  -1.67909535E-06, ]
- [  5.78105589E-07,   1.07839467E-06,  -3.26581713E-07, ]
- [  1.06041524E-02,   6.71014459E-03,   7.87236268E-03, ]
- [  1.06123707E-02,  -6.73245394E-03,  -7.87035848E-03, ]
- [ -1.06054254E-02,  -6.71130496E-03,  -7.87378857E-03, ]
- [ -1.06082361E-02,   6.71667234E-03,   7.87244059E-03, ]
- [  1.11462015E-02,  -2.15852845E-02,   1.00820669E-02, ]
- [  1.11412527E-02,   2.15860879E-02,  -1.00790272E-02, ]
- [ -1.11455650E-02,   2.15813091E-02,  -1.00818360E-02, ]
- [ -1.11354838E-02,  -2.15795984E-02,   1.00762308E-02, ]
- [ -1.59316436E-02,  -2.53155453E-02,  -7.34789597E-03, ]
- [ -1.59311789E-02,   2.53251048E-02,   7.35501111E-03, ]
- [  1.59319457E-02,   2.53175816E-02,   7.34826653E-03, ]
- [  1.59224492E-02,  -2.53152750E-02,  -7.35146680E-03, ]
force_length_stats: {min:   1.26641097E-06, max:   3.08100565E-02, mean:   2.05488332E-02, }
...

 Integrated electronic and magnetization densities in atomic spheres:
 ---------------------------------------------------------------------
 Radius=ratsph(iatom), smearing ratsm=  0.0000. Diff(up-dn)=approximate z local magnetic moment.
 Atom    Radius    up_density   dn_density  Total(up+dn)  Diff(up-dn)
    1   2.00000     8.877839     7.154435     16.032274     1.723404
    2   2.00000     8.877870     7.154523     16.032393     1.723347
    3   2.00000     2.700360     2.684049      5.384409     0.016311
    4   2.00000     2.700390     2.684085      5.384474     0.016305
    5   2.00000     2.700370     2.684059      5.384429     0.016311
    6   2.00000     2.700397     2.684074      5.384471     0.016323
    7   2.00000     3.304258     3.217061      6.521319     0.087197
    8   2.00000     3.304236     3.217045      6.521281     0.087190
    9   2.00000     3.304262     3.217060      6.521322     0.087202
   10   2.00000     3.304237     3.217044      6.521281     0.087193
   11   2.00000     3.309328     3.260282      6.569610     0.049046
   12   2.00000     3.309327     3.260269      6.569596     0.049058
   13   2.00000     3.309322     3.260276      6.569598     0.049046
   14   2.00000     3.309324     3.260272      6.569596     0.049052
 ---------------------------------------------------------------------
  Sum:             55.011520    50.954534    105.966053     4.056986
 Total magnetization (from the atomic spheres):             4.056986
 Total magnetization (exact up - dn):                       4.000000
================================================================================

 ----iterations are completed or convergence reached----

 Mean square residual over all n,k,spin=   16.984E-10; max=  43.900E-08
 reduced coordinates (array xred) for   14 atoms
      -0.000000000000      0.500000000000      0.500000000000
       0.000000000000      0.000000000000      0.000000000000
       0.454881000000      0.620487000000      0.410829000000
       0.545119000000      0.120487000000      0.089171000000
       0.545119000000      0.379513000000      0.589171000000
       0.454881000000      0.879513000000      0.910829000000
       0.801164000000      0.292554000000      0.678558000000
       0.198836000000      0.792554000000      0.821442000000
       0.198836000000      0.707446000000      0.321442000000
       0.801164000000      0.207446000000      0.178558000000
       0.642429000000      0.715676000000      0.366279000000
       0.357571000000      0.215676000000      0.133721000000
       0.357571000000      0.284324000000      0.633721000000
       0.642429000000      0.784324000000      0.866279000000
 rms dE/dt=  1.4798E-01; max dE/dt=  2.5919E-01; dE/dt below (all hartree)
    1      -0.000020412888      0.000018235765     -0.000005807220
    2      -0.000016265709     -0.000001139187      0.000005335399
    3      -0.068706488547     -0.102948372316      0.117479286037
    4       0.068924451695     -0.103028162271     -0.117584082257
    5       0.068707919567      0.102969678857     -0.117495573794
    6      -0.068773322328      0.102996966754      0.117517944042
    7       0.220993936425     -0.108210980618     -0.024675254615
    8      -0.221012611108     -0.108162933722      0.024714912967
    9      -0.220963683919      0.108213748030      0.024659160377
   10       0.220935720027      0.108115872070     -0.024700481048
   11       0.259185905448      0.154680490208     -0.220210150078
   12      -0.259294228359      0.154675978334      0.220341278360
   13      -0.259217203050     -0.154674475880      0.220230334620
   14       0.259183137590     -0.154582277256     -0.220244205220

 cartesian coordinates (angstrom) at end:
    1      2.56881915886377    -1.53541730612120    -2.63963832430062
    2      0.00000000000000     0.00000000000000     0.00000000000000
    3      3.18783778685181     1.20292884936431    -2.16887994626820
    4      0.61901862798804     2.67959120016848    -0.47075837803242
    5      1.94980053087573     1.14417389404728    -3.11039670233305
    6      4.51861968973951    -0.33248845675689    -4.80851827056883
    7      1.50303664040447     2.25691697079119    -3.58229540412157
    8      4.07185579926824    -1.44523153350080    -4.33661956878031
    9      3.63460167732308     0.09018577262040    -1.69698124447968
   10      1.06578251845931     3.79233427691239    -0.94265707982094
   11      3.67688444067798     2.35585784651790    -1.93368817157302
   12      1.10806528181421     1.52666220301489    -0.70595015272761
   13      1.46075387704957    -0.00875510310631    -3.34558847702823
   14      4.02957303591334     0.82044054039670    -4.57332649587364

 cartesian forces (hartree/bohr) at end:
    1     -0.00000141751621     0.00000148345520    -0.00000167909535
    2      0.00000057810559     0.00000107839467    -0.00000032658171
    3      0.01060415237258     0.00671014459318     0.00787236268034
    4      0.01061237074515    -0.00673245394417    -0.00787035848035
    5     -0.01060542540986    -0.00671130496078    -0.00787378856554
    6     -0.01060823606567     0.00671667233827     0.00787244059054
    7      0.01114620150077    -0.02158528448809     0.01008206691764
    8      0.01114125266617     0.02158608787154    -0.01007902721928
    9     -0.01114556500609     0.02158130908736    -0.01008183596472
   10     -0.01113548377342    -0.02157959841445     0.01007623084441
   11     -0.01593164362771    -0.02531554532940    -0.00734789597007
   12     -0.01593117890430     0.02532510477546     0.00735501110971
   13      0.01593194568980     0.02531758161017     0.00734826652993
   14      0.01592244922321    -0.02531527498895    -0.00735146679554
 frms,max,avg= 1.3309475E-02 2.5325105E-02  -4.608E-07  5.103E-07 -6.272E-08 h/b

 cartesian forces (eV/Angstrom) at end:
    1     -0.00007289160790     0.00007628232711    -0.00008634254741
    2      0.00002972738212     0.00005545327878    -0.00001679350550
    3      0.54528739340256     0.34504947929935     0.40481313122037
    4      0.54570999907618    -0.34619667215595    -0.40471007112200
    5     -0.54535285560608    -0.34510914779578    -0.40488645317933
    6     -0.54549738532680     0.34538514942008     0.40481713752367
    7      0.57316067792564    -1.10995986296846     0.51844068214722
    8      0.57290619864032     1.11000117460299    -0.51828437458595
    9     -0.57312794805615     1.10975543966102    -0.51842880607150
   10     -0.57260955027296    -1.10966747333060     0.51814057922073
   11     -0.81923798538007    -1.30177757167384    -0.37784397090282
   12     -0.81921408834340     1.30226913811337     0.37820984606304
   13      0.81925351803589     1.30188228143232     0.37786302585513
   14      0.81876519013064    -1.30176367021040    -0.37802759011563
 frms,max,avg= 6.8440065E-01 1.3022691E+00  -2.369E-05  2.624E-05 -3.225E-06 e/A
 length scales=  1.010000000000  1.010000000000  1.010000000000 bohr
              =  0.534468980676  0.534468980676  0.534468980676 angstroms
 Fermi (or HOMO) energy (hartree) =   0.10448   Average Vxc (hartree)=  -0.40086
 Magnetization (Bohr magneton)=  4.00000000E+00
 Total spin up =  5.20000000E+01   Total spin down =  4.80000000E+01
 Eigenvalues (hartree) for nkpt=   4  k points, SPIN UP:
 kpt#   1, nband= 65, wtk=  0.25000, kpt=  0.2500  0.2500  0.2500 (reduced coord)
  -3.87814   -3.87810   -2.40312   -2.40308   -2.40249   -2.40247   -2.39659   -2.39657
  -0.79020   -0.78202   -0.75682   -0.75577   -0.70784   -0.70430   -0.68622   -0.68507
  -0.35832   -0.34053   -0.24134   -0.23594   -0.22108   -0.21847   -0.18951   -0.18271
  -0.17068   -0.16219   -0.14844   -0.13735   -0.10879   -0.09911   -0.09034   -0.08384
  -0.07450   -0.07052   -0.05995   -0.04351   -0.04089   -0.03055   -0.02917   -0.02195
  -0.00778   -0.00437   -0.00363    0.00137    0.00810    0.01439    0.02037    0.02535
   0.02746    0.03769    0.05092    0.05737    0.19982    0.21396    0.32641    0.33426
   0.34481    0.36951    0.42085    0.42173    0.44973    0.47697    0.49702    0.50992
   0.52317
      occupation numbers for kpt#   1
   1.00000    1.00000    1.00000    1.00000    1.00000    1.00000    1.00000    1.00000
   1.00000    1.00000    1.00000    1.00000    1.00000    1.00000    1.00000    1.00000
   1.00000    1.00000    1.00000    1.00000    1.00000    1.00000    1.00000    1.00000
   1.00000    1.00000    1.00000    1.00000    1.00000    1.00000    1.00000    1.00000
   1.00000    1.00000    1.00000    1.00000    1.00000    1.00000    1.00000    1.00000
   1.00000    1.00000    1.00000    1.00000    1.00000    1.00000    1.00000    1.00000
   1.00000    1.00000    1.00000    1.00000    0.00000    0.00000    0.00000    0.00000
   0.00000    0.00000    0.00000    0.00000    0.00000    0.00000    0.00000    0.00000
   0.00000
 prteigrs : prtvol=0 or 1, do not print more k-points.

 Eigenvalues (hartree) for nkpt=   4  k points, SPIN DOWN:
 kpt#   1, nband= 65, wtk=  0.25000, kpt=  0.2500  0.2500  0.2500 (reduced coord)
  -3.79735   -3.79729   -2.28801   -2.28798   -2.28646   -2.28641   -2.28406   -2.28401
  -0.78665   -0.77832   -0.75263   -0.75157   -0.70323   -0.69939   -0.68102   -0.67998
  -0.35588   -0.33793   -0.23484   -0.22855   -0.21408   -0.21202   -0.18424   -0.17590
  -0.16692   -0.15271   -0.14206   -0.13031   -0.10584   -0.08261   -0.06569   -0.05729
  -0.04384   -0.04018   -0.03316   -0.02592   -0.01128   -0.00975   -0.00345    0.00294
   0.00839    0.01816    0.03299    0.03923    0.04266    0.04612    0.04786    0.05093
   0.16535    0.17358    0.18481    0.19232    0.20424    0.21657    0.32702    0.34355
   0.34877    0.38041    0.42534    0.42917    0.45514    0.48318    0.50078    0.51442
   0.52808
      occupation numbers for kpt#   1
   1.00000    1.00000    1.00000    1.00000    1.00000    1.00000    1.00000    1.00000
   1.00000    1.00000    1.00000    1.00000    1.00000    1.00000    1.00000    1.00000
   1.00000    1.00000    1.00000    1.00000    1.00000    1.00000    1.00000    1.00000
   1.00000    1.00000    1.00000    1.00000    1.00000    1.00000    1.00000    1.00000
   1.00000    1.00000    1.00000    1.00000    1.00000    1.00000    1.00000    1.00000
   1.00000    1.00000    1.00000    1.00000    1.00000    1.00000    1.00000    1.00000
   0.00000    0.00000    0.00000    0.00000    0.00000    0.00000    0.00000    0.00000
   0.00000    0.00000    0.00000    0.00000    0.00000    0.00000    0.00000    0.00000
   0.00000
 prteigrs : prtvol=0 or 1, do not print more k-points.


--- !EnergyTerms
iteration_state     : {dtset: 1, }
comment             : Components of total free energy in Hartree
kinetic             :  2.36423775456234E+02
hartree             :  1.70085333409584E+02
xc                  : -6.52652922655181E+01
Ewald energy        : -2.63435043120434E+02
psp_core            :  1.14529209447005E+01
local_psp           : -4.38171737831784E+02
non_local_psp       : -1.10217105923378E+02
internal            : -4.59127149330596E+02
'-kT*entropy'       :  4.26290451696855E-15
total_energy        : -4.59127149330596E+02
total_energy_eV     : -1.24934851009824E+04
band_energy         : -6.10251698069255E+01
...


 Cartesian components of stress tensor (hartree/bohr^3)
  sigma(1 1)=  1.28152507E-02  sigma(3 2)= -1.90753360E-05
  sigma(2 2)=  1.29282056E-02  sigma(3 1)= -6.91434484E-08
  sigma(3 3)=  1.27628521E-02  sigma(2 1)= -3.61951040E-08

-Cartesian components of stress tensor (GPa)         [Pressure= -3.7763E+02 GPa]
- sigma(1 1)=  3.77037631E+02  sigma(3 2)= -5.61215668E-01
- sigma(2 2)=  3.80360877E+02  sigma(3 1)= -2.03427014E-03
- sigma(3 3)=  3.75496009E+02  sigma(2 1)= -1.06489654E-03

== END DATASET(S) ==============================================================
================================================================================
  
 -outvars: echo values of variables after computation  --------
-          iomode           1
            acell      1.0100000000E+00  1.0100000000E+00  1.0100000000E+00 Bohr
              amu      5.86900000E+01  1.20110000E+01  1.59994000E+01
        autoparal           1
     densfor_pred           6
           diemac      1.00000000E+00
           diemix      4.00000000E-01
             ecut      2.50000000E+02 Hartree
           ecutsm      5.00000000E-01 Hartree
           etotal     -4.5912714933E+02
            fcart     -1.4175162056E-06  1.4834552015E-06 -1.6790953542E-06
                       5.7810558891E-07  1.0783946682E-06 -3.2658171340E-07
                       1.0604152373E-02  6.7101445932E-03  7.8723626803E-03
                       1.0612370745E-02 -6.7324539442E-03 -7.8703584803E-03
                      -1.0605425410E-02 -6.7113049608E-03 -7.8737885655E-03
                      -1.0608236066E-02  6.7166723383E-03  7.8724405905E-03
                       1.1146201501E-02 -2.1585284488E-02  1.0082066918E-02
                       1.1141252666E-02  2.1586087872E-02 -1.0079027219E-02
                      -1.1145565006E-02  2.1581309087E-02 -1.0081835965E-02
                      -1.1135483773E-02 -2.1579598414E-02  1.0076230844E-02
                      -1.5931643628E-02 -2.5315545329E-02 -7.3478959701E-03
                      -1.5931178904E-02  2.5325104775E-02  7.3550111097E-03
                       1.5931945690E-02  2.5317581610E-02  7.3482665299E-03
                       1.5922449223E-02 -2.5315274989E-02 -7.3514667955E-03
-          fftalg         312
              ixc     -263267
              kpt      2.50000000E-01  2.50000000E-01  2.50000000E-01
                      -2.50000000E-01  2.50000000E-01  2.50000000E-01
                       2.50000000E-01 -2.50000000E-01  2.50000000E-01
                      -2.50000000E-01 -2.50000000E-01  2.50000000E-01
         kptrlatt        2    0    0      0    2    0      0    0    2
          kptrlen      1.94174588E+01
P           mkmem           1
            natom          14
            nband          65
            ngfft         150     144     180
             nkpt           4
-           npfft           2
-        np_spkpt           8
           nspden           2
           nsppol           2
            nstep          60
             nsym           1
           ntypat           3
              occ      1.000000  1.000000  1.000000  1.000000  1.000000  1.000000
                       1.000000  1.000000  1.000000  1.000000  1.000000  1.000000
                       1.000000  1.000000  1.000000  1.000000  1.000000  1.000000
                       1.000000  1.000000  1.000000  1.000000  1.000000  1.000000
                       1.000000  1.000000  1.000000  1.000000  1.000000  1.000000
                       1.000000  1.000000  1.000000  1.000000  1.000000  1.000000
                       1.000000  1.000000  1.000000  1.000000  1.000000  1.000000
                       1.000000  1.000000  1.000000  1.000000  1.000000  1.000000
                       1.000000  1.000000  1.000000  1.000000  0.000000  0.000000
                       0.000000  0.000000  0.000000  0.000000  0.000000  0.000000
                       0.000000  0.000000  0.000000  0.000000  0.000000
                       1.000000  1.000000  1.000000  1.000000  1.000000  1.000000
                       1.000000  1.000000  1.000000  1.000000  1.000000  1.000000
                       1.000000  1.000000  1.000000  1.000000  1.000000  1.000000
                       1.000000  1.000000  1.000000  1.000000  1.000000  1.000000
                       1.000000  1.000000  1.000000  1.000000  1.000000  1.000000
                       1.000000  1.000000  1.000000  1.000000  1.000000  1.000000
                       1.000000  1.000000  1.000000  1.000000  1.000000  1.000000
                       1.000000  1.000000  1.000000  1.000000  1.000000  1.000000
                       1.000000  1.000000  1.000000  1.000000  0.000000  0.000000
                       0.000000  0.000000  0.000000  0.000000  0.000000  0.000000
                       0.000000  0.000000  0.000000  0.000000  0.000000
                       1.000000  1.000000  1.000000  1.000000  1.000000  1.000000
                       1.000000  1.000000  1.000000  1.000000  1.000000  1.000000
                       1.000000  1.000000  1.000000  1.000000  1.000000  1.000000
                       1.000000  1.000000  1.000000  1.000000  1.000000  1.000000
                       1.000000  1.000000  1.000000  1.000000  1.000000  1.000000
                       1.000000  1.000000  1.000000  1.000000  1.000000  1.000000
                       1.000000  1.000000  1.000000  1.000000  1.000000  1.000000
                       1.000000  1.000000  1.000000  1.000000  1.000000  1.000000
                       1.000000  1.000000  1.000000  1.000000  0.000000  0.000000
                       0.000000  0.000000  0.000000  0.000000  0.000000  0.000000
                       0.000000  0.000000  0.000000  0.000000  0.000000
                       1.000000  1.000000  1.000000  1.000000  1.000000  1.000000
                       1.000000  1.000000  1.000000  1.000000  1.000000  1.000000
                       1.000000  1.000000  1.000000  1.000000  1.000000  1.000000
                       1.000000  1.000000  1.000000  1.000000  1.000000  1.000000
                       1.000000  1.000000  1.000000  1.000000  1.000000  1.000000
                       1.000000  1.000000  1.000000  1.000000  1.000000  1.000000
                       1.000000  1.000000  1.000000  1.000000  1.000000  1.000000
                       1.000000  1.000000  1.000000  1.000000  1.000000  1.000000
                       1.000000  1.000000  1.000000  1.000000  0.000000  0.000000
                       0.000000  0.000000  0.000000  0.000000  0.000000  0.000000
                       0.000000  0.000000  0.000000  0.000000  0.000000
                       1.000000  1.000000  1.000000  1.000000  1.000000  1.000000
                       1.000000  1.000000  1.000000  1.000000  1.000000  1.000000
                       1.000000  1.000000  1.000000  1.000000  1.000000  1.000000
                       1.000000  1.000000  1.000000  1.000000  1.000000  1.000000
                       1.000000  1.000000  1.000000  1.000000  1.000000  1.000000
                       1.000000  1.000000  1.000000  1.000000  1.000000  1.000000
                       1.000000  1.000000  1.000000  1.000000  1.000000  1.000000
                       1.000000  1.000000  1.000000  1.000000  1.000000  1.000000
                       0.000000  0.000000  0.000000  0.000000  0.000000  0.000000
                       0.000000  0.000000  0.000000  0.000000  0.000000  0.000000
                       0.000000  0.000000  0.000000  0.000000  0.000000
                       1.000000  1.000000  1.000000  1.000000  1.000000  1.000000
                       1.000000  1.000000  1.000000  1.000000  1.000000  1.000000
                       1.000000  1.000000  1.000000  1.000000  1.000000  1.000000
                       1.000000  1.000000  1.000000  1.000000  1.000000  1.000000
                       1.000000  1.000000  1.000000  1.000000  1.000000  1.000000
                       1.000000  1.000000  1.000000  1.000000  1.000000  1.000000
                       1.000000  1.000000  1.000000  1.000000  1.000000  1.000000
                       1.000000  1.000000  1.000000  1.000000  1.000000  1.000000
                       0.000000  0.000000  0.000000  0.000000  0.000000  0.000000
                       0.000000  0.000000  0.000000  0.000000  0.000000  0.000000
                       0.000000  0.000000  0.000000  0.000000  0.000000
                       1.000000  1.000000  1.000000  1.000000  1.000000  1.000000
                       1.000000  1.000000  1.000000  1.000000  1.000000  1.000000
                       1.000000  1.000000  1.000000  1.000000  1.000000  1.000000
                       1.000000  1.000000  1.000000  1.000000  1.000000  1.000000
                       1.000000  1.000000  1.000000  1.000000  1.000000  1.000000
                       1.000000  1.000000  1.000000  1.000000  1.000000  1.000000
                       1.000000  1.000000  1.000000  1.000000  1.000000  1.000000
                       1.000000  1.000000  1.000000  1.000000  1.000000  1.000000
                       0.000000  0.000000  0.000000  0.000000  0.000000  0.000000
                       0.000000  0.000000  0.000000  0.000000  0.000000  0.000000
                       0.000000  0.000000  0.000000  0.000000  0.000000
                       1.000000  1.000000  1.000000  1.000000  1.000000  1.000000
                       1.000000  1.000000  1.000000  1.000000  1.000000  1.000000
                       1.000000  1.000000  1.000000  1.000000  1.000000  1.000000
                       1.000000  1.000000  1.000000  1.000000  1.000000  1.000000
                       1.000000  1.000000  1.000000  1.000000  1.000000  1.000000
                       1.000000  1.000000  1.000000  1.000000  1.000000  1.000000
                       1.000000  1.000000  1.000000  1.000000  1.000000  1.000000
                       1.000000  1.000000  1.000000  1.000000  1.000000  1.000000
                       0.000000  0.000000  0.000000  0.000000  0.000000  0.000000
                       0.000000  0.000000  0.000000  0.000000  0.000000  0.000000
                       0.000000  0.000000  0.000000  0.000000  0.000000
           occopt           3
           ortalg          -2
        paral_kgb           1
           prtden           0
           prteig           0
          prtkden           1
            prtwf           0
            rprim      0.0000000000E+00  1.0137047334E+01  0.0000000000E+00
                       9.6126033568E+00  0.0000000000E+00  0.0000000000E+00
                       0.0000000000E+00 -5.7455806104E+00 -9.8776109362E+00
           shiftk      5.00000000E-01  5.00000000E-01  5.00000000E-01
          spgroup           1
           spinat      0.0000000000E+00  0.0000000000E+00  1.0000000000E+00
                       0.0000000000E+00  0.0000000000E+00  1.0000000000E+00
                       0.0000000000E+00  0.0000000000E+00  1.0000000000E+00
                       0.0000000000E+00  0.0000000000E+00  1.0000000000E+00
                       0.0000000000E+00  0.0000000000E+00  1.0000000000E+00
                       0.0000000000E+00  0.0000000000E+00  1.0000000000E+00
                       0.0000000000E+00  0.0000000000E+00  1.0000000000E+00
                       0.0000000000E+00  0.0000000000E+00  1.0000000000E+00
                       0.0000000000E+00  0.0000000000E+00  1.0000000000E+00
                       0.0000000000E+00  0.0000000000E+00  1.0000000000E+00
                       0.0000000000E+00  0.0000000000E+00  1.0000000000E+00
                       0.0000000000E+00  0.0000000000E+00  1.0000000000E+00
                       0.0000000000E+00  0.0000000000E+00  1.0000000000E+00
                       0.0000000000E+00  0.0000000000E+00  1.0000000000E+00
           strten      1.2815250744E-02  1.2928205601E-02  1.2762852074E-02
                      -1.9075336042E-05 -6.9143448407E-08 -3.6195103963E-08
           toldfe      1.00000000E-06 Hartree
           tsmear      1.00000000E-03 Hartree
            typat      1  1  2  2  2  2  3  3  3  3  3  3  3  3
          usekden           1
         wfoptalg         114
              wtk        0.25000    0.25000    0.25000    0.25000
           xangst      2.5688191589E+00 -1.5354173061E+00 -2.6396383243E+00
                       0.0000000000E+00  0.0000000000E+00  0.0000000000E+00
                       3.1878377869E+00  1.2029288494E+00 -2.1688799463E+00
                       6.1901862799E-01  2.6795912002E+00 -4.7075837803E-01
                       1.9498005309E+00  1.1441738940E+00 -3.1103967023E+00
                       4.5186196897E+00 -3.3248845676E-01 -4.8085182706E+00
                       1.5030366404E+00  2.2569169708E+00 -3.5822954041E+00
                       4.0718557993E+00 -1.4452315335E+00 -4.3366195688E+00
                       3.6346016773E+00  9.0185772620E-02 -1.6969812445E+00
                       1.0657825185E+00  3.7923342769E+00 -9.4265707982E-01
                       3.6768844407E+00  2.3558578465E+00 -1.9336881716E+00
                       1.1080652818E+00  1.5266622030E+00 -7.0595015273E-01
                       1.4607538770E+00 -8.7551031063E-03 -3.3455884770E+00
                       4.0295730359E+00  8.2044054040E-01 -4.5733264959E+00
            xcart      4.8543646952E+00 -2.9015182083E+00 -4.9881935228E+00
                       0.0000000000E+00  0.0000000000E+00  0.0000000000E+00
                       6.0241403732E+00  2.2732060826E+00 -4.0985891136E+00
                       1.1697756781E+00  5.0636935164E+00 -8.8960440924E-01
                       3.6845890171E+00  2.1621753081E+00 -5.8777979320E+00
                       8.5389537123E+00 -6.2831212562E-01 -9.0867826364E+00
                       2.8403276181E+00  4.2649549795E+00 -6.7695572409E+00
                       7.6946923132E+00 -2.7310917969E+00 -8.1950233275E+00
                       6.8684017723E+00  1.7042641134E-01 -3.2068298047E+00
                       2.0140370771E+00  7.1664731877E+00 -1.7813637181E+00
                       6.9483046151E+00  4.4519261379E+00 -3.6541410707E+00
                       2.0939399200E+00  2.8849734611E+00 -1.3340524521E+00
                       2.7604247752E+00 -1.6544747136E-02 -6.3222459749E+00
                       7.6147894703E+00  1.5504079297E+00 -8.6423345935E+00
             xred     -1.5340306078E-17  5.0000000000E-01  5.0000000000E-01
                       0.0000000000E+00  0.0000000000E+00  0.0000000000E+00
                       4.5488100000E-01  6.2048700000E-01  4.1082900000E-01
                       5.4511900000E-01  1.2048700000E-01  8.9171000000E-02
                       5.4511900000E-01  3.7951300000E-01  5.8917100000E-01
                       4.5488100000E-01  8.7951300000E-01  9.1082900000E-01
                       8.0116400000E-01  2.9255400000E-01  6.7855800000E-01
                       1.9883600000E-01  7.9255400000E-01  8.2144200000E-01
                       1.9883600000E-01  7.0744600000E-01  3.2144200000E-01
                       8.0116400000E-01  2.0744600000E-01  1.7855800000E-01
                       6.4242900000E-01  7.1567600000E-01  3.6627900000E-01
                       3.5757100000E-01  2.1567600000E-01  1.3372100000E-01
                       3.5757100000E-01  2.8432400000E-01  6.3372100000E-01
                       6.4242900000E-01  7.8432400000E-01  8.6627900000E-01
            znucl       28.00000    6.00000    8.00000

================================================================================


- Timing analysis has been suppressed with timopt=0



================================================================================

 Suggested references for the acknowledgment of ABINIT usage.

 The users of ABINIT have little formal obligations with respect to the ABINIT group
 (those specified in the GNU General Public License, http://www.gnu.org/copyleft/gpl.txt).
 However, it is common practice in the scientific literature,
 to acknowledge the efforts of people that have made the research possible.
 In this spirit, please find below suggested citations of work written by ABINIT developers,
 corresponding to implementations inside of ABINIT that you have used in the present run.
 Note also that it will be of great value to readers of publications presenting these results,
 to read papers enabling them to understand the theoretical formalism and details
 of the ABINIT implementation.
 For information on why they are suggested, see also https://docs.abinit.org/theory/acknowledgments.
-
- [1] Libxc: A library of exchange and correlation functionals for density functional theory.
- M.A.L. Marques, M.J.T. Oliveira, T. Burnus, Computer Physics Communications 183, 2227 (2012).
- Comment: to be cited when LibXC is used (negative value of ixc)
- Strong suggestion to cite this paper.
- DOI and bibtex: see https://docs.abinit.org/theory/bibliography/#marques2012
-
- [2] Large scale ab initio calculations based on three levels of parallelization
- F. Bottin, S. Leroux, A. Knyazev, G. Zerah, Comput. Mat. Science 42, 329, (2008).
- Comment: in case LOBPCG algorithm is used (wfoptalg=4/14/114).
- Strong suggestion to cite this paper in your publications.
- This paper is also available at http://www.arxiv.org/abs/0707.3405
- DOI and bibtex: see https://docs.abinit.org/theory/bibliography/#bottin2008
-
- [3] The Abinit project: Impact, environment and recent developments.
- Computer Phys. Comm. 248, 107042 (2020).
- X.Gonze, B. Amadon, G. Antonius, F.Arnardi, L.Baguet, J.-M.Beuken,
- J.Bieder, F.Bottin, J.Bouchet, E.Bousquet, N.Brouwer, F.Bruneval,
- G.Brunin, T.Cavignac, J.-B. Charraud, Wei Chen, M.Cote, S.Cottenier,
- J.Denier, G.Geneste, Ph.Ghosez, M.Giantomassi, Y.Gillet, O.Gingras,
- D.R.Hamann, G.Hautier, Xu He, N.Helbig, N.Holzwarth, Y.Jia, F.Jollet,
- W.Lafargue-Dit-Hauret, K.Lejaeghere, M.A.L.Marques, A.Martin, C.Martins,
- H.P.C. Miranda, F.Naccarato, K. Persson, G.Petretto, V.Planes, Y.Pouillon,
- S.Prokhorenko, F.Ricci, G.-M.Rignanese, A.H.Romero, M.M.Schmitt, M.Torrent,
- M.J.van Setten, B.Van Troeye, M.J.Verstraete, G.Zerah and J.W.Zwanzig
- Comment: the fifth generic paper describing the ABINIT project.
- Note that a version of this paper, that is not formatted for Computer Phys. Comm. 
- is available at https://www.abinit.org/sites/default/files/ABINIT20.pdf .
- The licence allows the authors to put it on the Web.
- DOI and bibtex: see https://docs.abinit.org/theory/bibliography/#gonze2020
-
- [4] Optimized norm-conserving Vanderbilt pseudopotentials.
- D.R. Hamann, Phys. Rev. B 88, 085117 (2013).
- Comment: Some pseudopotential generated using the ONCVPSP code were used.
- DOI and bibtex: see https://docs.abinit.org/theory/bibliography/#hamann2013
-
- [5] ABINIT: Overview, and focus on selected capabilities
- J. Chem. Phys. 152, 124102 (2020).
- A. Romero, D.C. Allan, B. Amadon, G. Antonius, T. Applencourt, L.Baguet,
- J.Bieder, F.Bottin, J.Bouchet, E.Bousquet, F.Bruneval,
- G.Brunin, D.Caliste, M.Cote,
- J.Denier, C. Dreyer, Ph.Ghosez, M.Giantomassi, Y.Gillet, O.Gingras,
- D.R.Hamann, G.Hautier, F.Jollet, G. Jomard,
- A.Martin, 
- H.P.C. Miranda, F.Naccarato, G.Petretto, N.A. Pike, V.Planes,
- S.Prokhorenko, T. Rangel, F.Ricci, G.-M.Rignanese, M.Royo, M.Stengel, M.Torrent,
- M.J.van Setten, B.Van Troeye, M.J.Verstraete, J.Wiktor, J.W.Zwanziger, and X.Gonze.
- Comment: a global overview of ABINIT, with focus on selected capabilities .
- Note that a version of this paper, that is not formatted for J. Chem. Phys 
- is available at https://www.abinit.org/sites/default/files/ABINIT20_JPC.pdf .
- The licence allows the authors to put it on the Web.
- DOI and bibtex: see https://docs.abinit.org/theory/bibliography/#romero2020
-
- [6] Recent developments in the ABINIT software package.
- Computer Phys. Comm. 205, 106 (2016).
- X.Gonze, F.Jollet, F.Abreu Araujo, D.Adams, B.Amadon, T.Applencourt,
- C.Audouze, J.-M.Beuken, J.Bieder, A.Bokhanchuk, E.Bousquet, F.Bruneval
- D.Caliste, M.Cote, F.Dahm, F.Da Pieve, M.Delaveau, M.Di Gennaro,
- B.Dorado, C.Espejo, G.Geneste, L.Genovese, A.Gerossier, M.Giantomassi,
- Y.Gillet, D.R.Hamann, L.He, G.Jomard, J.Laflamme Janssen, S.Le Roux,
- A.Levitt, A.Lherbier, F.Liu, I.Lukacevic, A.Martin, C.Martins,
- M.J.T.Oliveira, S.Ponce, Y.Pouillon, T.Rangel, G.-M.Rignanese,
- A.H.Romero, B.Rousseau, O.Rubel, A.A.Shukri, M.Stankovski, M.Torrent,
- M.J.Van Setten, B.Van Troeye, M.J.Verstraete, D.Waroquier, J.Wiktor,
- B.Xu, A.Zhou, J.W.Zwanziger.
- Comment: the fourth generic paper describing the ABINIT project.
- Note that a version of this paper, that is not formatted for Computer Phys. Comm. 
- is available at https://www.abinit.org/sites/default/files/ABINIT16.pdf .
- The licence allows the authors to put it on the Web.
- DOI and bibtex: see https://docs.abinit.org/theory/bibliography/#gonze2016
-
- Proc.   0 individual time (sec): cpu=       4217.0  wall=       4228.2

================================================================================

 Calculation completed.
.Delivered   0 WARNINGs and   0 COMMENTs to log file.
+Overall time at end (sec) : cpu=      67482.0  wall=      67649.9
