
     Program PWSCF v.7.0 starts on 23Feb2023 at 23:56:45 

     This program is part of the open-source Quantum ESPRESSO suite
     for quantum simulation of materials; please cite
         "P. Giannozzi et al., J. Phys.:Condens. Matter 21 395502 (2009);
         "P. Giannozzi et al., J. Phys.:Condens. Matter 29 465901 (2017);
         "P. Giannozzi et al., J. Chem. Phys. 152 154105 (2020);
          URL http://www.quantum-espresso.org", 
     in publications or presentations arising from this work. More details at
     http://www.quantum-espresso.org/quote

     Parallel version (MPI), running on   480 processors

     MPI processes distributed on    40 nodes
     R & G space division:  proc/nbgrp/npool/nimage =     480
     165305 MiB available memory on the printing compute node when the environment starts

     Reading input from pw_soc_cg.inp
Warning: card &CELL ignored
Warning: card / ignored

     Current dimensions of program PWSCF are:
     Max number of different atomic species (ntypx) = 10
     Max number of k-points (npk) =  40000
     Max angular momentum in pseudopotentials (lmaxx) =  4
     Message from routine cell_base_init:
     DEPRECATED: use true lattice parameter, not A to a.u. conversion factor

     IMPORTANT: XC functional enforced from input :
     Exchange-correlation= PBE
                           (   1   4   3   4   0   0   0)
     Any further DFT definition will be discarded
     Please, verify this is what you really want

     Found identity + (  0.0000  0.0000 -0.5000) symmetry
     This is a supercell, fractional translations are disabled

     Subspace diagonalization in iterative solution of the eigenvalue problem:
     one sub-group per band group will be used
     scalapack distributed-memory algorithm (size of sub-group: 21* 21 procs)


     Parallelization info
     --------------------
     sticks:   dense  smooth     PW     G-vecs:    dense   smooth      PW
     Min          61      61     15                 3579     3579     467
     Max          62      62     16                 3583     3583     474
     Sum       29353   29353   7589              1718551  1718551  226033

     Using Pencil Decomposition



     bravais-lattice index     =            0
     lattice parameter (alat)  =       1.0000  a.u.
     unit-cell volume          =   17775.3313 (a.u.)^3
     number of atoms/cell      =           72
     number of atomic types    =            1
     number of electrons       =      1368.00
     number of Kohn-Sham states=         1650
     kinetic-energy cutoff     =      80.0000  Ry
     charge density cutoff     =     320.0000  Ry
     scf convergence threshold =      1.0E-02
     mixing beta               =       0.2000
     number of iterations used =            8  TF        mixing
     Exchange-correlation= PBE
                           (   1   4   3   4   0   0   0)
     Non magnetic calculation with spin-orbit


     celldm(1)=   1.000000  celldm(2)=   0.000000  celldm(3)=   0.000000
     celldm(4)=   0.000000  celldm(5)=   0.000000  celldm(6)=   0.000000

     crystal axes: (cart. coord. in units of alat)
               a(1) = (  33.951920   0.000000   0.000000 )  
               a(2) = (   0.000000  33.951920   0.000000 )  
               a(3) = (   0.000000   0.000000  15.420165 )  

     reciprocal axes: (cart. coord. in units 2 pi/alat)
               b(1) = (  0.029453  0.000000  0.000000 )  
               b(2) = (  0.000000  0.029453  0.000000 )  
               b(3) = (  0.000000  0.000000  0.064850 )  


     PseudoPot. # 1 for Au read from file:
     .././Au_FR.upf
     MD5 check sum: 0f4c7ff4841ea3d6668dbbe9cc620d4d
     Pseudo is Norm-conserving + core correction, Zval = 19.0
     Generated using ONCVPSP code by D. R. Hamann
     Using radial grid of 1356 points, 12 beta functions with: 
                l(1) =   0
                l(2) =   0
                l(3) =   1
                l(4) =   1
                l(5) =   1
                l(6) =   1
                l(7) =   2
                l(8) =   2
                l(9) =   2
               l(10) =   2
               l(11) =   3
               l(12) =   3

     atomic species   valence    mass     pseudopotential
        Au            19.00   197.00000     Au( 1.00)

     No symmetry found


                                    s                        frac. trans.

      isym =  1     identity                                     

 cryst.   s( 1) = (     1          0          0      )
                  (     0          1          0      )
                  (     0          0          1      )

 cart.    s( 1) = (  1.0000000  0.0000000  0.0000000 )
                  (  0.0000000  1.0000000  0.0000000 )
                  (  0.0000000  0.0000000  1.0000000 )


   Cartesian axes

     site n.     atom                  positions (alat units)
         1           Au  tau(   1) = (   7.3383567   7.3383567   1.9275206  )
         2           Au  tau(   2) = (   7.3383567  11.1933981   5.7825619  )
         3           Au  tau(   3) = (  11.1933981   7.3383567   5.7825619  )
         4           Au  tau(   4) = (  11.1933981  11.1933981   1.9275206  )
         5           Au  tau(   5) = (   7.3383567  15.0484394   1.9275206  )
         6           Au  tau(   6) = (   7.3383567  18.9034806   5.7825619  )
         7           Au  tau(   7) = (  11.1933981  15.0484394   5.7825619  )
         8           Au  tau(   8) = (  11.1933981  18.9034806   1.9275206  )
         9           Au  tau(   9) = (   7.3383567  22.7585219   1.9275206  )
        10           Au  tau(  10) = (   7.3383567  26.6135632   5.7825619  )
        11           Au  tau(  11) = (  11.1933981  22.7585219   5.7825619  )
        12           Au  tau(  12) = (  11.1933981  26.6135632   1.9275206  )
        13           Au  tau(  13) = (  15.0484394   7.3383567   1.9275206  )
        14           Au  tau(  14) = (  15.0484394  11.1933981   5.7825619  )
        15           Au  tau(  15) = (  18.9034806   7.3383567   5.7825619  )
        16           Au  tau(  16) = (  18.9034806  11.1933981   1.9275206  )
        17           Au  tau(  17) = (  15.0484394  15.0484394   1.9275206  )
        18           Au  tau(  18) = (  15.0484394  18.9034806   5.7825619  )
        19           Au  tau(  19) = (  18.9034806  15.0484394   5.7825619  )
        20           Au  tau(  20) = (  18.9034806  18.9034806   1.9275206  )
        21           Au  tau(  21) = (  15.0484394  22.7585219   1.9275206  )
        22           Au  tau(  22) = (  15.0484394  26.6135632   5.7825619  )
        23           Au  tau(  23) = (  18.9034806  22.7585219   5.7825619  )
        24           Au  tau(  24) = (  18.9034806  26.6135632   1.9275206  )
        25           Au  tau(  25) = (  22.7585219   7.3383567   1.9275206  )
        26           Au  tau(  26) = (  22.7585219  11.1933981   5.7825619  )
        27           Au  tau(  27) = (  26.6135632   7.3383567   5.7825619  )
        28           Au  tau(  28) = (  26.6135632  11.1933981   1.9275206  )
        29           Au  tau(  29) = (  22.7585219  15.0484394   1.9275206  )
        30           Au  tau(  30) = (  22.7585219  18.9034806   5.7825619  )
        31           Au  tau(  31) = (  26.6135632  15.0484394   5.7825619  )
        32           Au  tau(  32) = (  26.6135632  18.9034806   1.9275206  )
        33           Au  tau(  33) = (  22.7585219  22.7585219   1.9275206  )
        34           Au  tau(  34) = (  22.7585219  26.6135632   5.7825619  )
        35           Au  tau(  35) = (  26.6135632  22.7585219   5.7825619  )
        36           Au  tau(  36) = (  26.6135632  26.6135632   1.9275206  )
        37           Au  tau(  37) = (   7.3383567   7.3383567   9.6376032  )
        38           Au  tau(  38) = (   7.3383567  11.1933981  13.4926445  )
        39           Au  tau(  39) = (  11.1933981   7.3383567  13.4926445  )
        40           Au  tau(  40) = (  11.1933981  11.1933981   9.6376032  )
        41           Au  tau(  41) = (   7.3383567  15.0484394   9.6376032  )
        42           Au  tau(  42) = (   7.3383567  18.9034806  13.4926445  )
        43           Au  tau(  43) = (  11.1933981  15.0484394  13.4926445  )
        44           Au  tau(  44) = (  11.1933981  18.9034806   9.6376032  )
        45           Au  tau(  45) = (   7.3383567  22.7585219   9.6376032  )
        46           Au  tau(  46) = (   7.3383567  26.6135632  13.4926445  )
        47           Au  tau(  47) = (  11.1933981  22.7585219  13.4926445  )
        48           Au  tau(  48) = (  11.1933981  26.6135632   9.6376032  )
        49           Au  tau(  49) = (  15.0484394   7.3383567   9.6376032  )
        50           Au  tau(  50) = (  15.0484394  11.1933981  13.4926445  )
        51           Au  tau(  51) = (  18.9034806   7.3383567  13.4926445  )
        52           Au  tau(  52) = (  18.9034806  11.1933981   9.6376032  )
        53           Au  tau(  53) = (  15.0484394  15.0484394   9.6376032  )
        54           Au  tau(  54) = (  15.0484394  18.9034806  13.4926445  )
        55           Au  tau(  55) = (  18.9034806  15.0484394  13.4926445  )
        56           Au  tau(  56) = (  18.9034806  18.9034806   9.6376032  )
        57           Au  tau(  57) = (  15.0484394  22.7585219   9.6376032  )
        58           Au  tau(  58) = (  15.0484394  26.6135632  13.4926445  )
        59           Au  tau(  59) = (  18.9034806  22.7585219  13.4926445  )
        60           Au  tau(  60) = (  18.9034806  26.6135632   9.6376032  )
        61           Au  tau(  61) = (  22.7585219   7.3383567   9.6376032  )
        62           Au  tau(  62) = (  22.7585219  11.1933981  13.4926445  )
        63           Au  tau(  63) = (  26.6135632   7.3383567  13.4926445  )
        64           Au  tau(  64) = (  26.6135632  11.1933981   9.6376032  )
        65           Au  tau(  65) = (  22.7585219  15.0484394   9.6376032  )
        66           Au  tau(  66) = (  22.7585219  18.9034806  13.4926445  )
        67           Au  tau(  67) = (  26.6135632  15.0484394  13.4926445  )
        68           Au  tau(  68) = (  26.6135632  18.9034806   9.6376032  )
        69           Au  tau(  69) = (  22.7585219  22.7585219   9.6376032  )
        70           Au  tau(  70) = (  22.7585219  26.6135632  13.4926445  )
        71           Au  tau(  71) = (  26.6135632  22.7585219  13.4926445  )
        72           Au  tau(  72) = (  26.6135632  26.6135632   9.6376032  )

   Crystallographic axes

     site n.     atom                  positions (cryst. coord.)
         1           Au  tau(   1) = (  0.2161397  0.2161397  0.1250000  )
         2           Au  tau(   2) = (  0.2161397  0.3296838  0.3750000  )
         3           Au  tau(   3) = (  0.3296838  0.2161397  0.3750000  )
         4           Au  tau(   4) = (  0.3296838  0.3296838  0.1250000  )
         5           Au  tau(   5) = (  0.2161397  0.4432279  0.1250000  )
         6           Au  tau(   6) = (  0.2161397  0.5567721  0.3750000  )
         7           Au  tau(   7) = (  0.3296838  0.4432279  0.3750000  )
         8           Au  tau(   8) = (  0.3296838  0.5567721  0.1250000  )
         9           Au  tau(   9) = (  0.2161397  0.6703162  0.1250000  )
        10           Au  tau(  10) = (  0.2161397  0.7838603  0.3750000  )
        11           Au  tau(  11) = (  0.3296838  0.6703162  0.3750000  )
        12           Au  tau(  12) = (  0.3296838  0.7838603  0.1250000  )
        13           Au  tau(  13) = (  0.4432279  0.2161397  0.1250000  )
        14           Au  tau(  14) = (  0.4432279  0.3296838  0.3750000  )
        15           Au  tau(  15) = (  0.5567721  0.2161397  0.3750000  )
        16           Au  tau(  16) = (  0.5567721  0.3296838  0.1250000  )
        17           Au  tau(  17) = (  0.4432279  0.4432279  0.1250000  )
        18           Au  tau(  18) = (  0.4432279  0.5567721  0.3750000  )
        19           Au  tau(  19) = (  0.5567721  0.4432279  0.3750000  )
        20           Au  tau(  20) = (  0.5567721  0.5567721  0.1250000  )
        21           Au  tau(  21) = (  0.4432279  0.6703162  0.1250000  )
        22           Au  tau(  22) = (  0.4432279  0.7838603  0.3750000  )
        23           Au  tau(  23) = (  0.5567721  0.6703162  0.3750000  )
        24           Au  tau(  24) = (  0.5567721  0.7838603  0.1250000  )
        25           Au  tau(  25) = (  0.6703162  0.2161397  0.1250000  )
        26           Au  tau(  26) = (  0.6703162  0.3296838  0.3750000  )
        27           Au  tau(  27) = (  0.7838603  0.2161397  0.3750000  )
        28           Au  tau(  28) = (  0.7838603  0.3296838  0.1250000  )
        29           Au  tau(  29) = (  0.6703162  0.4432279  0.1250000  )
        30           Au  tau(  30) = (  0.6703162  0.5567721  0.3750000  )
        31           Au  tau(  31) = (  0.7838603  0.4432279  0.3750000  )
        32           Au  tau(  32) = (  0.7838603  0.5567721  0.1250000  )
        33           Au  tau(  33) = (  0.6703162  0.6703162  0.1250000  )
        34           Au  tau(  34) = (  0.6703162  0.7838603  0.3750000  )
        35           Au  tau(  35) = (  0.7838603  0.6703162  0.3750000  )
        36           Au  tau(  36) = (  0.7838603  0.7838603  0.1250000  )
        37           Au  tau(  37) = (  0.2161397  0.2161397  0.6250000  )
        38           Au  tau(  38) = (  0.2161397  0.3296838  0.8750000  )
        39           Au  tau(  39) = (  0.3296838  0.2161397  0.8750000  )
        40           Au  tau(  40) = (  0.3296838  0.3296838  0.6250000  )
        41           Au  tau(  41) = (  0.2161397  0.4432279  0.6250000  )
        42           Au  tau(  42) = (  0.2161397  0.5567721  0.8750000  )
        43           Au  tau(  43) = (  0.3296838  0.4432279  0.8750000  )
        44           Au  tau(  44) = (  0.3296838  0.5567721  0.6250000  )
        45           Au  tau(  45) = (  0.2161397  0.6703162  0.6250000  )
        46           Au  tau(  46) = (  0.2161397  0.7838603  0.8750000  )
        47           Au  tau(  47) = (  0.3296838  0.6703162  0.8750000  )
        48           Au  tau(  48) = (  0.3296838  0.7838603  0.6250000  )
        49           Au  tau(  49) = (  0.4432279  0.2161397  0.6250000  )
        50           Au  tau(  50) = (  0.4432279  0.3296838  0.8750000  )
        51           Au  tau(  51) = (  0.5567721  0.2161397  0.8750000  )
        52           Au  tau(  52) = (  0.5567721  0.3296838  0.6250000  )
        53           Au  tau(  53) = (  0.4432279  0.4432279  0.6250000  )
        54           Au  tau(  54) = (  0.4432279  0.5567721  0.8750000  )
        55           Au  tau(  55) = (  0.5567721  0.4432279  0.8750000  )
        56           Au  tau(  56) = (  0.5567721  0.5567721  0.6250000  )
        57           Au  tau(  57) = (  0.4432279  0.6703162  0.6250000  )
        58           Au  tau(  58) = (  0.4432279  0.7838603  0.8750000  )
        59           Au  tau(  59) = (  0.5567721  0.6703162  0.8750000  )
        60           Au  tau(  60) = (  0.5567721  0.7838603  0.6250000  )
        61           Au  tau(  61) = (  0.6703162  0.2161397  0.6250000  )
        62           Au  tau(  62) = (  0.6703162  0.3296838  0.8750000  )
        63           Au  tau(  63) = (  0.7838603  0.2161397  0.8750000  )
        64           Au  tau(  64) = (  0.7838603  0.3296838  0.6250000  )
        65           Au  tau(  65) = (  0.6703162  0.4432279  0.6250000  )
        66           Au  tau(  66) = (  0.6703162  0.5567721  0.8750000  )
        67           Au  tau(  67) = (  0.7838603  0.4432279  0.8750000  )
        68           Au  tau(  68) = (  0.7838603  0.5567721  0.6250000  )
        69           Au  tau(  69) = (  0.6703162  0.6703162  0.6250000  )
        70           Au  tau(  70) = (  0.6703162  0.7838603  0.8750000  )
        71           Au  tau(  71) = (  0.7838603  0.6703162  0.8750000  )
        72           Au  tau(  72) = (  0.7838603  0.7838603  0.6250000  )

     number of k points=     2  Fermi-Dirac smearing, width (Ry)=  0.0020
                       cart. coord. in units 2pi/alat
        k(    1) = (   0.0000000   0.0000000   0.0081063), wk =   0.5000000
        k(    2) = (   0.0000000   0.0000000   0.0243188), wk =   0.5000000

                       cryst. coord.
        k(    1) = (   0.0000000   0.0000000   0.1250000), wk =   0.5000000
        k(    2) = (   0.0000000   0.0000000   0.3750000), wk =   0.5000000

     Dense  grid:  1718551 G-vectors     FFT dimensions: ( 200, 200,  90)

     Dynamical RAM for                 wfc:      22.51 MB

     Dynamical RAM for     wfc (w. buffer):      67.52 MB

     Dynamical RAM for           str. fact:       0.05 MB

     Dynamical RAM for           local pot:       0.00 MB

     Dynamical RAM for          nlocal pot:      23.57 MB

     Dynamical RAM for                qrad:       7.46 MB

     Dynamical RAM for          rho,v,vnew:       4.32 MB

     Dynamical RAM for               rhoin:       1.44 MB

     Dynamical RAM for            rho*nmix:       3.50 MB

     Dynamical RAM for           G-vectors:       0.23 MB

     Dynamical RAM for          h,s,v(r/c):       0.28 MB

     Dynamical RAM for          <psi|beta>:     174.02 MB

     Dynamical RAM for      wfcinit/wfcrot:      96.09 MB

     Estimated static dynamical RAM per process >     107.16 MB

     Estimated max dynamical RAM per process >     284.96 MB

     Estimated total dynamical RAM >     133.57 GB

     Initial potential from superposition of free atoms

     starting charge    1367.9917, renormalised to    1368.0000

     negative rho (up, down):  1.831E-06 0.000E+00
     Starting wfcs are random

     total cpu time spent up to now is       45.5 secs

     per-process dynamical memory:   574.8 Mb

     Self-consistent Calculation

     iteration #  1     ecut=    80.00 Ry     beta= 0.20
     CG style diagonalization

---- Real-time Memory Report at c_bands before calling an iterative solver
           667 MiB given to the printing process from OS
           561 MiB allocation reported by mallinfo(arena+hblkhd)
        158492 MiB available memory on the node where the printing process lives
------------------
     ethr =  1.00E-02,  avg # of iterations = 16.8

     Threshold (ethr) on eigenvalues was too large:
     Diagonalizing with lowered threshold

     CG style diagonalization

---- Real-time Memory Report at c_bands before calling an iterative solver
           820 MiB given to the printing process from OS
           712 MiB allocation reported by mallinfo(arena+hblkhd)
        155709 MiB available memory on the node where the printing process lives
------------------
     ethr =  4.27E-04,  avg # of iterations =  2.1

     negative rho (up, down):  9.985E-07 0.000E+00

     total cpu time spent up to now is     2166.6 secs

     total energy              =  -21268.05723044 Ry
     estimated scf accuracy    <       5.49724229 Ry

     iteration #  2     ecut=    80.00 Ry     beta= 0.20
     CG style diagonalization

---- Real-time Memory Report at c_bands before calling an iterative solver
           820 MiB given to the printing process from OS
           712 MiB allocation reported by mallinfo(arena+hblkhd)
        155573 MiB available memory on the node where the printing process lives
------------------
     ethr =  4.02E-04,  avg # of iterations =  3.0

     negative rho (up, down):  1.169E-03 0.000E+00

     total cpu time spent up to now is     2444.4 secs

     total energy              =  -21266.99179246 Ry
     estimated scf accuracy    <       2.98637868 Ry

     iteration #  3     ecut=    80.00 Ry     beta= 0.20
     CG style diagonalization

---- Real-time Memory Report at c_bands before calling an iterative solver
           820 MiB given to the printing process from OS
           712 MiB allocation reported by mallinfo(arena+hblkhd)
        155432 MiB available memory on the node where the printing process lives
------------------
     ethr =  2.18E-04,  avg # of iterations =  3.5

     negative rho (up, down):  2.107E-03 0.000E+00

     total cpu time spent up to now is     2782.4 secs

     total energy              =  -21267.65336220 Ry
     estimated scf accuracy    <       0.11242832 Ry

     iteration #  4     ecut=    80.00 Ry     beta= 0.20
     CG style diagonalization

---- Real-time Memory Report at c_bands before calling an iterative solver
           820 MiB given to the printing process from OS
           712 MiB allocation reported by mallinfo(arena+hblkhd)
        155253 MiB available memory on the node where the printing process lives
------------------
     c_bands:  1 eigenvalues not converged
     c_bands:  1 eigenvalues not converged
     ethr =  8.22E-06,  avg # of iterations =  7.2

     negative rho (up, down):  5.831E-03 0.000E+00

     total cpu time spent up to now is     3455.3 secs

     total energy              =  -21267.65404265 Ry
     estimated scf accuracy    <       0.10129494 Ry

     iteration #  5     ecut=    80.00 Ry     beta= 0.20
     CG style diagonalization

---- Real-time Memory Report at c_bands before calling an iterative solver
           820 MiB given to the printing process from OS
           712 MiB allocation reported by mallinfo(arena+hblkhd)
        154918 MiB available memory on the node where the printing process lives
------------------
     c_bands:  1 eigenvalues not converged
     ethr =  7.40E-06,  avg # of iterations =  3.6

     negative rho (up, down):  1.384E-02 0.000E+00

     total cpu time spent up to now is     3794.7 secs

     total energy              =  -21267.66368821 Ry
     estimated scf accuracy    <       0.07260735 Ry

     iteration #  6     ecut=    80.00 Ry     beta= 0.20
     CG style diagonalization

---- Real-time Memory Report at c_bands before calling an iterative solver
           820 MiB given to the printing process from OS
           712 MiB allocation reported by mallinfo(arena+hblkhd)
        154739 MiB available memory on the node where the printing process lives
------------------
     ethr =  5.31E-06,  avg # of iterations =  3.0

     negative rho (up, down):  1.640E-02 0.000E+00

     total cpu time spent up to now is     4075.0 secs

     total energy              =  -21267.66605351 Ry
     estimated scf accuracy    <       0.02097014 Ry

     iteration #  7     ecut=    80.00 Ry     beta= 0.20
     CG style diagonalization

---- Real-time Memory Report at c_bands before calling an iterative solver
           820 MiB given to the printing process from OS
           712 MiB allocation reported by mallinfo(arena+hblkhd)
        154600 MiB available memory on the node where the printing process lives
------------------
     ethr =  1.53E-06,  avg # of iterations =  3.0

     negative rho (up, down):  2.356E-02 0.000E+00

     total cpu time spent up to now is     4359.4 secs

     total energy              =  -21267.66672666 Ry
     estimated scf accuracy    <       0.01353824 Ry

     iteration #  8     ecut=    80.00 Ry     beta= 0.20
     CG style diagonalization

---- Real-time Memory Report at c_bands before calling an iterative solver
           820 MiB given to the printing process from OS
           712 MiB allocation reported by mallinfo(arena+hblkhd)
        154446 MiB available memory on the node where the printing process lives
------------------
     ethr =  9.90E-07,  avg # of iterations =  3.1

     total cpu time spent up to now is     4645.7 secs

     End of self-consistent calculation

          k = 0.0000 0.0000 0.0081 (214720 PWs)   bands (ev):

   -98.4018 -98.4018 -98.3984 -98.3984 -98.3968 -98.3968 -98.3957 -98.3957
   -98.3956 -98.3956 -98.3956 -98.3956 -98.3954 -98.3954 -98.3936 -98.3936
   -98.3366 -98.3366 -98.3360 -98.3360 -98.3359 -98.3359 -98.3351 -98.3351
   -98.3349 -98.3349 -98.3349 -98.3349 -98.3348 -98.3348 -98.3344 -98.3344
   -98.3332 -98.3332 -98.3329 -98.3329 -98.3327 -98.3327 -98.3326 -98.3326
   -98.3323 -98.3323 -98.3316 -98.3316 -98.3315 -98.3315 -98.3308 -98.3308
   -98.2509 -98.2509 -98.2508 -98.2508 -98.2506 -98.2506 -98.2506 -98.2506
   -98.2505 -98.2505 -98.2504 -98.2504 -98.2504 -98.2504 -98.2503 -98.2503
   -97.8352 -97.8352 -97.8351 -97.8351 -97.8350 -97.8350 -97.8350 -97.8350
   -97.8335 -97.8335 -97.8334 -97.8334 -97.8333 -97.8333 -97.8333 -97.8333
   -97.8327 -97.8327 -97.8326 -97.8326 -97.8325 -97.8325 -97.8325 -97.8325
   -97.8312 -97.8312 -97.8311 -97.8311 -97.8311 -97.8311 -97.8310 -97.8310
   -97.8024 -97.8024 -97.8024 -97.8024 -97.8024 -97.8024 -97.8023 -97.8023
   -97.8022 -97.8022 -97.8022 -97.8022 -97.8021 -97.8021 -97.8021 -97.8021
   -97.8004 -97.8004 -97.8004 -97.8004 -97.8003 -97.8003 -97.8002 -97.8002
   -97.8001 -97.8001 -97.8001 -97.8001 -97.8001 -97.8001 -97.8001 -97.8001
   -97.3705 -97.3705 -97.3704 -97.3704 -97.3704 -97.3704 -97.3704 -97.3704
   -97.3704 -97.3704 -97.3702 -97.3702 -97.3702 -97.3702 -97.3700 -97.3700
   -62.0915 -62.0915 -62.0858 -62.0858 -62.0857 -62.0857 -62.0847 -62.0847
   -62.0846 -62.0846 -62.0799 -62.0799 -62.0748 -62.0748 -62.0662 -62.0662
   -62.0292 -62.0292 -62.0267 -62.0267 -62.0267 -62.0267 -62.0235 -62.0235
   -62.0227 -62.0227 -62.0220 -62.0220 -62.0220 -62.0220 -62.0206 -62.0206
   -62.0160 -62.0160 -62.0149 -62.0149 -62.0144 -62.0144 -62.0143 -62.0143
   -62.0125 -62.0125 -62.0097 -62.0097 -62.0097 -62.0097 -62.0051 -62.0051
   -61.9369 -61.9369 -61.9369 -61.9369 -61.9367 -61.9367 -61.9365 -61.9365
   -61.9357 -61.9357 -61.9356 -61.9356 -61.9354 -61.9354 -61.9352 -61.9352
   -61.5234 -61.5234 -61.5233 -61.5232 -61.5232 -61.5231 -61.5231 -61.5230
   -61.5164 -61.5163 -61.5162 -61.5162 -61.5162 -61.5161 -61.5161 -61.5160
   -61.5135 -61.5134 -61.5133 -61.5133 -61.5133 -61.5132 -61.5132 -61.5131
   -61.5096 -61.5096 -61.5094 -61.5094 -61.5093 -61.5093 -61.5090 -61.5090
   -61.4877 -61.4877 -61.4877 -61.4877 -61.4877 -61.4877 -61.4876 -61.4876
   -61.4862 -61.4862 -61.4857 -61.4857 -61.4857 -61.4857 -61.4852 -61.4852
   -61.4803 -61.4803 -61.4803 -61.4803 -61.4803 -61.4803 -61.4802 -61.4802
   -61.4790 -61.4790 -61.4787 -61.4787 -61.4786 -61.4786 -61.4783 -61.4783
   -61.0570 -61.0570 -61.0569 -61.0569 -61.0569 -61.0569 -61.0569 -61.0569
   -61.0566 -61.0566 -61.0565 -61.0565 -61.0565 -61.0565 -61.0564 -61.0564
   -45.6422 -45.6422 -45.6331 -45.6330 -45.6301 -45.6301 -45.6284 -45.6284
   -45.6283 -45.6283 -45.6253 -45.6253 -45.6197 -45.6196 -45.6077 -45.6076
   -45.5969 -45.5969 -45.5966 -45.5965 -45.5851 -45.5851 -45.5826 -45.5825
   -45.5784 -45.5784 -45.5708 -45.5707 -45.5704 -45.5704 -45.5589 -45.5588
   -45.5569 -45.5569 -45.5527 -45.5527 -45.5491 -45.5491 -45.5480 -45.5480
   -45.5441 -45.5441 -45.5425 -45.5425 -45.5399 -45.5399 -45.5381 -45.5381
   -45.5252 -45.5251 -45.5215 -45.5214 -45.5189 -45.5189 -45.5144 -45.5144
   -45.5140 -45.5140 -45.5130 -45.5130 -45.5117 -45.5117 -45.5114 -45.5114
   -45.5029 -45.5029 -45.5021 -45.5021 -45.4966 -45.4965 -45.4933 -45.4933
   -45.4880 -45.4879 -45.4867 -45.4867 -45.4844 -45.4844 -45.4831 -45.4830
   -45.4792 -45.4792 -45.4770 -45.4770 -45.4750 -45.4750 -45.4685 -45.4685
   -45.4685 -45.4684 -45.4646 -45.4646 -45.4642 -45.4641 -45.4614 -45.4614
   -45.4271 -45.4271 -45.4269 -45.4268 -45.4255 -45.4254 -45.4247 -45.4247
   -45.4237 -45.4237 -45.4210 -45.4209 -45.4204 -45.4204 -45.4199 -45.4198
   -45.4172 -45.4172 -45.4144 -45.4144 -45.4128 -45.4128 -45.4125 -45.4125
   -45.4124 -45.4124 -45.4076 -45.4076 -45.4072 -45.4072 -45.4019 -45.4019
   -45.0758 -45.0758 -45.0748 -45.0748 -45.0730 -45.0729 -45.0715 -45.0714
   -45.0463 -45.0463 -45.0455 -45.0455 -45.0450 -45.0449 -45.0435 -45.0435
   -45.0415 -45.0415 -45.0409 -45.0409 -45.0395 -45.0395 -45.0354 -45.0353
   -45.0350 -45.0350 -45.0323 -45.0323 -45.0271 -45.0271 -45.0238 -45.0238
   -45.0186 -45.0186 -45.0156 -45.0156 -45.0116 -45.0116 -45.0089 -45.0089
   -45.0023 -45.0023 -45.0015 -45.0015 -44.9985 -44.9985 -44.9936 -44.9936
   -44.9935 -44.9935 -44.9912 -44.9912 -44.9863 -44.9862 -44.9859 -44.9859
   -44.9852 -44.9852 -44.9843 -44.9843 -44.9827 -44.9827 -44.9793 -44.9793
   -44.9722 -44.9722 -44.9698 -44.9698 -44.9690 -44.9690 -44.9675 -44.9675
   -44.9669 -44.9669 -44.9647 -44.9647 -44.9637 -44.9637 -44.9631 -44.9631
   -44.9625 -44.9625 -44.9620 -44.9619 -44.9595 -44.9594 -44.9587 -44.9587
   -44.9580 -44.9580 -44.9579 -44.9579 -44.9573 -44.9573 -44.9566 -44.9566
   -44.9546 -44.9546 -44.9535 -44.9535 -44.9531 -44.9530 -44.9526 -44.9526
   -44.9498 -44.9498 -44.9489 -44.9489 -44.9481 -44.9481 -44.9477 -44.9477
   -44.9257 -44.9256 -44.9251 -44.9251 -44.9245 -44.9245 -44.9243 -44.9242
   -44.9226 -44.9226 -44.9224 -44.9224 -44.9218 -44.9217 -44.9210 -44.9210
   -44.5647 -44.5647 -44.5647 -44.5646 -44.5643 -44.5643 -44.5642 -44.5642
   -44.5628 -44.5628 -44.5627 -44.5627 -44.5624 -44.5624 -44.5623 -44.5623
   -44.5327 -44.5326 -44.5326 -44.5325 -44.5319 -44.5319 -44.5318 -44.5318
   -44.5317 -44.5316 -44.5316 -44.5315 -44.5310 -44.5309 -44.5309 -44.5309
    -2.2824  -2.2824  -1.4513  -1.4513  -1.4468  -1.4468  -0.6968  -0.6968
    -0.5238  -0.5238  -0.3856  -0.3856  -0.3512  -0.3512  -0.1902  -0.1902
    -0.1890  -0.1890  -0.1609  -0.1609  -0.0825  -0.0825   0.0520   0.0520
     0.0559   0.0559   0.0866   0.0866   0.0869   0.0869   0.1335   0.1335
     0.1722   0.1722   0.2155   0.2155   0.2524   0.2524   0.3325   0.3325
     0.3389   0.3389   0.3462   0.3462   0.3551   0.3551   0.3780   0.3780
     0.3807   0.3807   0.3860   0.3860   0.3873   0.3873   0.4924   0.4924
     0.5893   0.5893   0.5923   0.5923   0.6029   0.6029   0.6049   0.6049
     0.6067   0.6067   0.6176   0.6177   0.6190   0.6190   0.6323   0.6323
     0.6592   0.6592   0.6664   0.6664   0.6930   0.6930   0.6932   0.6932
     0.7848   0.7848   0.8172   0.8172   0.8234   0.8235   0.8388   0.8388
     0.8660   0.8660   0.8881   0.8881   0.8945   0.8945   0.9160   0.9160
     0.9264   0.9264   0.9356   0.9356   0.9595   0.9595   0.9849   0.9849
     1.0091   1.0091   1.0357   1.0357   1.0431   1.0431   1.0442   1.0442
     1.0532   1.0532   1.0634   1.0634   1.0742   1.0742   1.0744   1.0744
     1.1093   1.1093   1.1242   1.1242   1.1249   1.1249   1.1378   1.1378
     1.1560   1.1560   1.1912   1.1912   1.2111   1.2111   1.2440   1.2440
     1.2506   1.2506   1.2512   1.2512   1.2806   1.2806   1.2922   1.2922
     1.3397   1.3397   1.3402   1.3402   1.3785   1.3785   1.3863   1.3863
     1.4215   1.4215   1.4232   1.4232   1.4337   1.4337   1.4454   1.4454
     1.4495   1.4496   1.4542   1.4542   1.4633   1.4633   1.4773   1.4773
     1.5052   1.5052   1.5204   1.5204   1.5248   1.5248   1.5294   1.5294
     1.5445   1.5445   1.5566   1.5566   1.5659   1.5659   1.5892   1.5892
     1.6029   1.6029   1.6049   1.6049   1.6306   1.6306   1.6592   1.6592
     1.6916   1.6916   1.7070   1.7070   1.7070   1.7070   1.7093   1.7093
     1.7295   1.7295   1.7525   1.7525   1.7589   1.7589   1.7694   1.7694
     1.7841   1.7841   1.7984   1.7984   1.8025   1.8025   1.8204   1.8204
     1.8577   1.8577   1.8670   1.8670   1.8779   1.8779   1.8792   1.8792
     1.8949   1.8949   1.8953   1.8953   1.8958   1.8958   1.9056   1.9056
     1.9229   1.9229   1.9320   1.9320   1.9351   1.9351   1.9584   1.9584
     1.9596   1.9596   1.9662   1.9662   1.9922   1.9922   1.9986   1.9986
     2.0272   2.0272   2.0300   2.0300   2.0421   2.0421   2.0470   2.0470
     2.0807   2.0807   2.1162   2.1162   2.1506   2.1506   2.1515   2.1515
     2.1763   2.1763   2.1880   2.1880   2.1925   2.1925   2.1948   2.1948
     2.2184   2.2184   2.2184   2.2184   2.2344   2.2344   2.2535   2.2535
     2.2636   2.2636   2.2858   2.2858   2.3040   2.3040   2.3238   2.3238
     2.3480   2.3480   2.3603   2.3603   2.3848   2.3848   2.3964   2.3964
     2.4055   2.4055   2.4056   2.4056   2.4087   2.4087   2.4378   2.4378
     2.4627   2.4627   2.4766   2.4766   2.4801   2.4801   2.4875   2.4875
     2.5213   2.5213   2.5784   2.5785   2.5873   2.5873   2.5906   2.5907
     2.5925   2.5925   2.5991   2.5991   2.6207   2.6207   2.6358   2.6358
     2.6519   2.6519   2.6629   2.6629   2.6712   2.6713   2.7241   2.7241
     2.7361   2.7361   2.7405   2.7406   2.7792   2.7792   2.7854   2.7854
     2.7946   2.7946   2.8120   2.8121   2.8519   2.8519   2.8533   2.8534
     2.8907   2.8907   2.8919   2.8919   2.9224   2.9224   2.9516   2.9516
     2.9747   2.9747   2.9889   2.9889   3.0302   3.0302   3.0308   3.0308
     3.0371   3.0371   3.0813   3.0813   3.1056   3.1056   3.1518   3.1518
     3.1532   3.1532   3.1698   3.1699   3.2027   3.2027   3.2033   3.2033
     3.2719   3.2719   3.2847   3.2847   3.3026   3.3026   3.3233   3.3233
     3.3369   3.3369   3.3443   3.3443   3.3641   3.3641   3.4403   3.4403
     3.4565   3.4565   3.4597   3.4597   3.4651   3.4651   3.4722   3.4722
     3.4820   3.4820   3.5177   3.5177   3.5241   3.5241   3.5300   3.5300
     3.5357   3.5357   3.5398   3.5398   3.5480   3.5480   3.5573   3.5573
     3.5691   3.5691   3.5924   3.5924   3.6059   3.6059   3.6197   3.6197
     3.6220   3.6220   3.6457   3.6457   3.6641   3.6641   3.6697   3.6697
     3.6961   3.6961   3.6997   3.6997   3.7088   3.7088   3.7244   3.7244
     3.7345   3.7346   3.7509   3.7510   3.7948   3.7948   3.8011   3.8011
     3.8168   3.8168   3.8235   3.8235   3.8311   3.8311   3.8358   3.8358
     3.8665   3.8665   3.8718   3.8718   3.8837   3.8837   3.8868   3.8868
     3.9063   3.9063   3.9451   3.9451   3.9452   3.9452   3.9586   3.9586
     3.9741   3.9741   3.9824   3.9824   3.9903   3.9903   3.9940   3.9940
     4.0092   4.0092   4.0220   4.0220   4.0462   4.0462   4.0513   4.0513
     4.0648   4.0648   4.0657   4.0657   4.0818   4.0818   4.0874   4.0874
     4.0968   4.0968   4.1023   4.1023   4.1288   4.1289   4.1439   4.1439
     4.1578   4.1578   4.1591   4.1591   4.1667   4.1667   4.1936   4.1937
     4.2017   4.2017   4.2027   4.2028   4.2161   4.2161   4.2251   4.2252
     4.2323   4.2323   4.2394   4.2394   4.2429   4.2429   4.2562   4.2562
     4.2584   4.2584   4.2819   4.2819   4.2886   4.2886   4.3043   4.3043
     4.3105   4.3105   4.3129   4.3129   4.3456   4.3456   4.3652   4.3652
     4.3827   4.3827   4.3847   4.3847   4.3892   4.3892   4.3985   4.3985
     4.4069   4.4069   4.4124   4.4124   4.4144   4.4144   4.4354   4.4354
     4.4375   4.4375   4.4455   4.4455   4.4688   4.4688   4.5053   4.5053
     4.5198   4.5198   4.5225   4.5225   4.5250   4.5250   4.5469   4.5469
     4.5484   4.5484   4.5594   4.5594   4.5713   4.5713   4.5844   4.5844
     4.5850   4.5850   4.5991   4.5991   4.6073   4.6073   4.6082   4.6082
     4.6147   4.6147   4.6428   4.6428   4.6629   4.6629   4.6695   4.6695
     4.6731   4.6731   4.6844   4.6844   4.6907   4.6907   4.6928   4.6928
     4.6943   4.6943   4.7035   4.7035   4.7224   4.7224   4.7322   4.7322
     4.7406   4.7406   4.7525   4.7525   4.7552   4.7552   4.7660   4.7661
     4.7858   4.7858   4.7869   4.7869   4.7999   4.7999   4.8017   4.8017
     4.8099   4.8099   4.8402   4.8402   4.8405   4.8405   4.8682   4.8682
     4.8699   4.8699   4.8764   4.8764   4.8869   4.8869   4.9169   4.9169
     4.9289   4.9289   4.9506   4.9506   4.9530   4.9530   4.9664   4.9664
     5.0129   5.0129   5.0244   5.0244   5.0369   5.0369   5.0421   5.0421
     5.0458   5.0458   5.0504   5.0504   5.0579   5.0579   5.0669   5.0669
     5.0766   5.0766   5.0807   5.0807   5.1008   5.1008   5.1104   5.1104
     5.1268   5.1269   5.1304   5.1304   5.1374   5.1374   5.1479   5.1479
     5.1509   5.1509   5.1774   5.1774   5.2018   5.2018   5.2022   5.2022
     5.2139   5.2139   5.2437   5.2437   5.2508   5.2508   5.2901   5.2901
     5.2907   5.2908   5.3025   5.3025   5.3122   5.3122   5.3432   5.3432
     5.3584   5.3584   5.3838   5.3838   5.3841   5.3841   5.3944   5.3944
     5.4152   5.4152   5.4179   5.4179   5.4387   5.4387   5.4719   5.4719
     5.5112   5.5112   5.5476   5.5476   5.5801   5.5802   5.6082   5.6082
     5.6440   5.6440   5.6455   5.6455   5.6594   5.6594   5.6746   5.6746
     5.7012   5.7012   5.7092   5.7092   5.7343   5.7343   5.7375   5.7375
     5.7525   5.7525   5.7893   5.7893   5.8072   5.8072   5.8305   5.8305
     5.9389   5.9389   5.9929   5.9929   6.0131   6.0131   6.2048   6.2048
     6.2190   6.2190   6.3677   6.3677   6.4644   6.4644   6.5840   6.5840
     6.6623   6.6623   6.6741   6.6741   6.7058   6.7058   6.7542   6.7542
     6.7926   6.7926   6.8135   6.8135   6.8361   6.8361   7.0249   7.0249
     7.3303   7.3303   7.3734   7.3734   7.4502   7.4502   7.5272   7.5272
     7.6649   7.6649   7.6802   7.6802   7.7359   7.7359   7.7582   7.7582
     7.7741   7.7741   7.7952   7.7952   8.0218   8.0218   8.1336   8.1336
     8.2356   8.2356   8.3419   8.3419   8.5614   8.5614   8.6227   8.6227
     8.6627   8.6627   8.6887   8.6887   8.6995   8.6995   8.7192   8.7192
     8.7973   8.7973   8.8245   8.8245   8.8770   8.8770   8.9595   8.9595
     8.9870   8.9870   8.9885   8.9885   8.9914   8.9914   9.2032   9.2032
     9.2301   9.2301   9.6320   9.6320   9.6529   9.6529   9.6870   9.6870
     9.7715   9.7715   9.8389   9.8389   9.8692   9.8692   9.8821   9.8821
     9.9877   9.9877   9.9928   9.9928  10.0754  10.0754  10.0950  10.0950
    10.1734  10.1734  10.4376  10.4376  10.5732  10.5732  10.6042  10.6042
    10.6574  10.6574  11.0288  11.0288  11.0380  11.0380  11.1300  11.1300
    11.2222  11.2222  11.2859  11.2859  11.3686  11.3686  11.4120  11.4120
    11.4223  11.4223  11.4413  11.4413  11.6196  11.6196  11.6776  11.6776
    11.6998  11.6998  11.7524  11.7524  11.7706  11.7706  11.7836  11.7836
    11.8662  11.8662  11.9161  11.9161  11.9253  11.9253  11.9848  11.9848
    12.0461  12.0461  12.1121  12.1121  12.1181  12.1181  12.4338  12.4338
    12.4676  12.4676  12.4870  12.4870  12.5151  12.5151  12.5848  12.5848
    12.6371  12.6371  12.6759  12.6759  12.7203  12.7203  12.7578  12.7578
    12.7746  12.7746  12.8268  12.8268  12.8833  12.8833  12.9035  12.9035
    12.9767  12.9768  13.0615  13.0615  13.1698  13.1698  13.1874  13.1874
    13.1938  13.1938  13.2089  13.2089  13.3643  13.3643  13.3855  13.3855
    13.4064  13.4064  13.4150  13.4150  13.4599  13.4599  13.4679  13.4679
    13.5194  13.5194  13.5668  13.5668  13.5748  13.5748  13.5881  13.5881
    13.7524  13.7524  13.8316  13.8316  13.8614  13.8614  13.9490  13.9490
    14.0129  14.0129  14.0171  14.0171  14.0743  14.0743  14.1231  14.1231
    14.1839  14.1839  14.2397  14.2397  14.2417  14.2417  14.2974  14.2974
    14.3001  14.3001  14.3140  14.3140  14.4190  14.4190  14.4524  14.4524
    14.5518  14.5518  14.5658  14.5658  14.5669  14.5669  14.6605  14.6605
    14.6905  14.6905  14.7907  14.7907  14.7959  14.7959  14.8456  14.8456
    14.8807  14.8807  14.9549  14.9549  14.9569  14.9570  14.9799  14.9800
    14.9928  14.9928  15.0127  15.0125  15.0174  15.0174  15.0192  15.0193
    15.0400  15.0401  15.2135  15.2135  15.2158  15.2159  15.2505  15.2505
    15.2805  15.2805  15.3061  15.3061  15.3247  15.3247  15.3579  15.3585
    15.4048  15.4053

     occupation numbers 
     1.0000   1.0000   1.0000   1.0000   1.0000   1.0000   1.0000   1.0000
     1.0000   1.0000   1.0000   1.0000   1.0000   1.0000   1.0000   1.0000
     1.0000   1.0000   1.0000   1.0000   1.0000   1.0000   1.0000   1.0000
     1.0000   1.0000   1.0000   1.0000   1.0000   1.0000   1.0000   1.0000
     1.0000   1.0000   1.0000   1.0000   1.0000   1.0000   1.0000   1.0000
     1.0000   1.0000   1.0000   1.0000   1.0000   1.0000   1.0000   1.0000
     1.0000   1.0000   1.0000   1.0000   1.0000   1.0000   1.0000   1.0000
     1.0000   1.0000   1.0000   1.0000   1.0000   1.0000   1.0000   1.0000
     1.0000   1.0000   1.0000   1.0000   1.0000   1.0000   1.0000   1.0000
     1.0000   1.0000   1.0000   1.0000   1.0000   1.0000   1.0000   1.0000
     1.0000   1.0000   1.0000   1.0000   1.0000   1.0000   1.0000   1.0000
     1.0000   1.0000   1.0000   1.0000   1.0000   1.0000   1.0000   1.0000
     1.0000   1.0000   1.0000   1.0000   1.0000   1.0000   1.0000   1.0000
     1.0000   1.0000   1.0000   1.0000   1.0000   1.0000   1.0000   1.0000
     1.0000   1.0000   1.0000   1.0000   1.0000   1.0000   1.0000   1.0000
     1.0000   1.0000   1.0000   1.0000   1.0000   1.0000   1.0000   1.0000
     1.0000   1.0000   1.0000   1.0000   1.0000   1.0000   1.0000   1.0000
     1.0000   1.0000   1.0000   1.0000   1.0000   1.0000   1.0000   1.0000
     1.0000   1.0000   1.0000   1.0000   1.0000   1.0000   1.0000   1.0000
     1.0000   1.0000   1.0000   1.0000   1.0000   1.0000   1.0000   1.0000
     1.0000   1.0000   1.0000   1.0000   1.0000   1.0000   1.0000   1.0000
     1.0000   1.0000   1.0000   1.0000   1.0000   1.0000   1.0000   1.0000
     1.0000   1.0000   1.0000   1.0000   1.0000   1.0000   1.0000   1.0000
     1.0000   1.0000   1.0000   1.0000   1.0000   1.0000   1.0000   1.0000
     1.0000   1.0000   1.0000   1.0000   1.0000   1.0000   1.0000   1.0000
     1.0000   1.0000   1.0000   1.0000   1.0000   1.0000   1.0000   1.0000
     1.0000   1.0000   1.0000   1.0000   1.0000   1.0000   1.0000   1.0000
     1.0000   1.0000   1.0000   1.0000   1.0000   1.0000   1.0000   1.0000
     1.0000   1.0000   1.0000   1.0000   1.0000   1.0000   1.0000   1.0000
     1.0000   1.0000   1.0000   1.0000   1.0000   1.0000   1.0000   1.0000
     1.0000   1.0000   1.0000   1.0000   1.0000   1.0000   1.0000   1.0000
     1.0000   1.0000   1.0000   1.0000   1.0000   1.0000   1.0000   1.0000
     1.0000   1.0000   1.0000   1.0000   1.0000   1.0000   1.0000   1.0000
     1.0000   1.0000   1.0000   1.0000   1.0000   1.0000   1.0000   1.0000
     1.0000   1.0000   1.0000   1.0000   1.0000   1.0000   1.0000   1.0000
     1.0000   1.0000   1.0000   1.0000   1.0000   1.0000   1.0000   1.0000
     1.0000   1.0000   1.0000   1.0000   1.0000   1.0000   1.0000   1.0000
     1.0000   1.0000   1.0000   1.0000   1.0000   1.0000   1.0000   1.0000
     1.0000   1.0000   1.0000   1.0000   1.0000   1.0000   1.0000   1.0000
     1.0000   1.0000   1.0000   1.0000   1.0000   1.0000   1.0000   1.0000
     1.0000   1.0000   1.0000   1.0000   1.0000   1.0000   1.0000   1.0000
     1.0000   1.0000   1.0000   1.0000   1.0000   1.0000   1.0000   1.0000
     1.0000   1.0000   1.0000   1.0000   1.0000   1.0000   1.0000   1.0000
     1.0000   1.0000   1.0000   1.0000   1.0000   1.0000   1.0000   1.0000
     1.0000   1.0000   1.0000   1.0000   1.0000   1.0000   1.0000   1.0000
     1.0000   1.0000   1.0000   1.0000   1.0000   1.0000   1.0000   1.0000
     1.0000   1.0000   1.0000   1.0000   1.0000   1.0000   1.0000   1.0000
     1.0000   1.0000   1.0000   1.0000   1.0000   1.0000   1.0000   1.0000
     1.0000   1.0000   1.0000   1.0000   1.0000   1.0000   1.0000   1.0000
     1.0000   1.0000   1.0000   1.0000   1.0000   1.0000   1.0000   1.0000
     1.0000   1.0000   1.0000   1.0000   1.0000   1.0000   1.0000   1.0000
     1.0000   1.0000   1.0000   1.0000   1.0000   1.0000   1.0000   1.0000
     1.0000   1.0000   1.0000   1.0000   1.0000   1.0000   1.0000   1.0000
     1.0000   1.0000   1.0000   1.0000   1.0000   1.0000   1.0000   1.0000
     1.0000   1.0000   1.0000   1.0000   1.0000   1.0000   1.0000   1.0000
     1.0000   1.0000   1.0000   1.0000   1.0000   1.0000   1.0000   1.0000
     1.0000   1.0000   1.0000   1.0000   1.0000   1.0000   1.0000   1.0000
     1.0000   1.0000   1.0000   1.0000   1.0000   1.0000   1.0000   1.0000
     1.0000   1.0000   1.0000   1.0000   1.0000   1.0000   1.0000   1.0000
     1.0000   1.0000   1.0000   1.0000   1.0000   1.0000   1.0000   1.0000
     1.0000   1.0000   1.0000   1.0000   1.0000   1.0000   1.0000   1.0000
     1.0000   1.0000   1.0000   1.0000   1.0000   1.0000   1.0000   1.0000
     1.0000   1.0000   1.0000   1.0000   1.0000   1.0000   1.0000   1.0000
     1.0000   1.0000   1.0000   1.0000   1.0000   1.0000   1.0000   1.0000
     1.0000   1.0000   1.0000   1.0000   1.0000   1.0000   1.0000   1.0000
     1.0000   1.0000   1.0000   1.0000   1.0000   1.0000   1.0000   1.0000
     1.0000   1.0000   1.0000   1.0000   1.0000   1.0000   1.0000   1.0000
     1.0000   1.0000   1.0000   1.0000   1.0000   1.0000   1.0000   1.0000
     1.0000   1.0000   1.0000   1.0000   1.0000   1.0000   1.0000   1.0000
     1.0000   1.0000   1.0000   1.0000   1.0000   1.0000   1.0000   1.0000
     1.0000   1.0000   1.0000   1.0000   1.0000   1.0000   1.0000   1.0000
     1.0000   1.0000   1.0000   1.0000   1.0000   1.0000   1.0000   1.0000
     1.0000   1.0000   1.0000   1.0000   1.0000   1.0000   1.0000   1.0000
     1.0000   1.0000   1.0000   1.0000   1.0000   1.0000   1.0000   1.0000
     1.0000   1.0000   1.0000   1.0000   1.0000   1.0000   1.0000   1.0000
     1.0000   1.0000   1.0000   1.0000   1.0000   1.0000   1.0000   1.0000
     1.0000   1.0000   1.0000   1.0000   1.0000   1.0000   1.0000   1.0000
     1.0000   1.0000   1.0000   1.0000   1.0000   1.0000   1.0000   1.0000
     1.0000   1.0000   1.0000   1.0000   1.0000   1.0000   1.0000   1.0000
     1.0000   1.0000   1.0000   1.0000   1.0000   1.0000   1.0000   1.0000
     1.0000   1.0000   1.0000   1.0000   1.0000   1.0000   1.0000   1.0000
     1.0000   1.0000   1.0000   1.0000   1.0000   1.0000   1.0000   1.0000
     1.0000   1.0000   1.0000   1.0000   1.0000   1.0000   1.0000   1.0000
     1.0000   1.0000   1.0000   1.0000   1.0000   1.0000   1.0000   1.0000
     1.0000   1.0000   1.0000   1.0000   1.0000   1.0000   1.0000   1.0000
     1.0000   1.0000   1.0000   1.0000   1.0000   1.0000   1.0000   1.0000
     1.0000   1.0000   1.0000   1.0000   1.0000   1.0000   1.0000   1.0000
     1.0000   1.0000   1.0000   1.0000   1.0000   1.0000   1.0000   1.0000
     1.0000   1.0000   1.0000   1.0000   1.0000   1.0000   1.0000   1.0000
     1.0000   1.0000   1.0000   1.0000   1.0000   1.0000   1.0000   1.0000
     1.0000   1.0000   1.0000   1.0000   1.0000   1.0000   1.0000   1.0000
     1.0000   1.0000   1.0000   1.0000   1.0000   1.0000   1.0000   1.0000
     1.0000   1.0000   1.0000   1.0000   1.0000   1.0000   1.0000   1.0000
     1.0000   1.0000   1.0000   1.0000   1.0000   1.0000   1.0000   1.0000
     1.0000   1.0000   1.0000   1.0000   1.0000   1.0000   1.0000   1.0000
     1.0000   1.0000   1.0000   1.0000   1.0000   1.0000   1.0000   1.0000
     1.0000   1.0000   1.0000   1.0000   1.0000   1.0000   1.0000   1.0000
     1.0000   1.0000   1.0000   1.0000   1.0000   1.0000   1.0000   1.0000
     1.0000   1.0000   1.0000   1.0000   1.0000   1.0000   1.0000   1.0000
     1.0000   1.0000   1.0000   1.0000   1.0000   1.0000   1.0000   1.0000
     1.0000   1.0000   1.0000   1.0000   1.0000   1.0000   1.0000   1.0000
     1.0000   1.0000   1.0000   1.0000   1.0000   1.0000   1.0000   1.0000
     1.0000   1.0000   1.0000   1.0000   1.0000   1.0000   1.0000   1.0000
     1.0000   1.0000   1.0000   1.0000   1.0000   1.0000   1.0000   1.0000
     1.0000   1.0000   1.0000   1.0000   1.0000   1.0000   1.0000   1.0000
     1.0000   1.0000   1.0000   1.0000   1.0000   1.0000   1.0000   1.0000
     1.0000   1.0000   1.0000   1.0000   1.0000   1.0000   1.0000   1.0000
     1.0000   1.0000   1.0000   1.0000   1.0000   1.0000   1.0000   1.0000
     1.0000   1.0000   1.0000   1.0000   1.0000   1.0000   1.0000   1.0000
     1.0000   1.0000   1.0000   1.0000   1.0000   1.0000   1.0000   1.0000
     1.0000   1.0000   1.0000   1.0000   1.0000   1.0000   1.0000   1.0000
     1.0000   1.0000   1.0000   1.0000   1.0000   1.0000   1.0000   1.0000
     1.0000   1.0000   1.0000   1.0000   1.0000   1.0000   1.0000   1.0000
     1.0000   1.0000   1.0000   1.0000   1.0000   1.0000   1.0000   1.0000
     1.0000   1.0000   1.0000   1.0000   1.0000   1.0000   1.0000   1.0000
     1.0000   1.0000   1.0000   1.0000   1.0000   1.0000   1.0000   1.0000
     1.0000   1.0000   1.0000   1.0000   1.0000   1.0000   1.0000   1.0000
     1.0000   1.0000   1.0000   1.0000   1.0000   1.0000   1.0000   1.0000
     1.0000   1.0000   1.0000   1.0000   1.0000   1.0000   1.0000   1.0000
     1.0000   1.0000   1.0000   1.0000   1.0000   1.0000   1.0000   1.0000
     1.0000   1.0000   1.0000   1.0000   1.0000   1.0000   1.0000   1.0000
     1.0000   1.0000   1.0000   1.0000   1.0000   1.0000   1.0000   1.0000
     1.0000   1.0000   1.0000   1.0000   1.0000   1.0000   1.0000   1.0000
     1.0000   1.0000   1.0000   1.0000   1.0000   1.0000   1.0000   1.0000
     1.0000   1.0000   1.0000   1.0000   1.0000   1.0000   1.0000   1.0000
     1.0000   1.0000   1.0000   1.0000   1.0000   1.0000   1.0000   1.0000
     1.0000   1.0000   1.0000   1.0000   1.0000   1.0000   1.0000   1.0000
     1.0000   1.0000   1.0000   1.0000   1.0000   1.0000   1.0000   1.0000
     1.0000   1.0000   1.0000   1.0000   1.0000   1.0000   1.0000   1.0000
     1.0000   1.0000   1.0000   1.0000   1.0000   1.0000   1.0000   1.0000
     1.0000   1.0000   1.0000   1.0000   1.0000   1.0000   1.0000   1.0000
     1.0000   1.0000   1.0000   1.0000   1.0000   1.0000   1.0000   1.0000
     1.0000   1.0000   1.0000   1.0000   1.0000   1.0000   1.0000   1.0000
     1.0000   1.0000   1.0000   1.0000   1.0000   1.0000   1.0000   1.0000
     1.0000   1.0000   1.0000   1.0000   1.0000   1.0000   1.0000   1.0000
     1.0000   1.0000   1.0000   1.0000   1.0000   1.0000   1.0000   1.0000
     1.0000   1.0000   1.0000   1.0000   1.0000   1.0000   1.0000   1.0000
     1.0000   1.0000   1.0000   1.0000   1.0000   1.0000   1.0000   1.0000
     1.0000   1.0000   1.0000   1.0000   1.0000   1.0000   1.0000   1.0000
     1.0000   1.0000   1.0000   1.0000   1.0000   1.0000   1.0000   1.0000
     1.0000   1.0000   1.0000   1.0000   1.0000   1.0000   1.0000   1.0000
     1.0000   1.0000   1.0000   1.0000   1.0000   1.0000   1.0000   1.0000
     1.0000   1.0000   1.0000   1.0000   1.0000   1.0000   1.0000   1.0000
     1.0000   1.0000   1.0000   1.0000   1.0000   1.0000   1.0000   1.0000
     1.0000   1.0000   1.0000   1.0000   1.0000   1.0000   1.0000   1.0000
     1.0000   1.0000   1.0000   1.0000   1.0000   1.0000   1.0000   1.0000
     1.0000   1.0000   1.0000   1.0000   1.0000   1.0000   1.0000   1.0000
     1.0000   1.0000   1.0000   1.0000   1.0000   1.0000   1.0000   1.0000
     1.0000   1.0000   1.0000   1.0000   1.0000   1.0000   1.0000   1.0000
     1.0000   1.0000   1.0000   1.0000   1.0000   1.0000   1.0000   1.0000
     1.0000   1.0000   1.0000   1.0000   1.0000   1.0000   1.0000   1.0000
     1.0000   1.0000   1.0000   1.0000   1.0000   1.0000   1.0000   1.0000
     1.0000   1.0000   1.0000   1.0000   1.0000   1.0000   1.0000   1.0000
     1.0000   1.0000   1.0000   1.0000   1.0000   1.0000   1.0000   1.0000
     1.0000   1.0000   1.0000   1.0000   1.0000   1.0000   1.0000   1.0000
     1.0000   1.0000   1.0000   1.0000   1.0000   1.0000   1.0000   1.0000
     1.0000   1.0000   1.0000   1.0000   1.0000   1.0000   1.0000   1.0000
     1.0000   1.0000   1.0000   1.0000   1.0000   1.0000   1.0000   1.0000
     1.0000   1.0000   1.0000   1.0000   1.0000   1.0000   1.0000   1.0000
     1.0000   1.0000   1.0000   1.0000   1.0000   1.0000   1.0000   1.0000
     1.0000   1.0000   1.0000   1.0000   1.0000   1.0000   1.0000   1.0000
     1.0000   1.0000   1.0000   1.0000   1.0000   1.0000   1.0000   1.0000
     1.0000   1.0000   1.0000   1.0000   1.0000   1.0000   1.0000   1.0000
     1.0000   1.0000   1.0000   1.0000   1.0000   1.0000   1.0000   1.0000
     1.0000   1.0000   1.0000   1.0000   1.0000   1.0000   1.0000   1.0000
     1.0000   1.0000   1.0000   1.0000   1.0000   1.0000   1.0000   1.0000
     1.0000   1.0000   1.0000   1.0000   1.0000   1.0000   1.0000   1.0000
     1.0000   1.0000   1.0000   1.0000   1.0000   1.0000   1.0000   1.0000
     1.0000   1.0000   1.0000   1.0000   1.0000   1.0000   1.0000   1.0000
     1.0000   1.0000   1.0000   1.0000   1.0000   1.0000   0.9999   0.9999
     0.9987   0.9987   0.9980   0.9980   0.9935   0.9935   0.9627   0.9627
     0.8629   0.8629   0.7447   0.7446   0.5596   0.5596   0.0012   0.0012
     0.0000   0.0000   0.0000   0.0000   0.0000   0.0000   0.0000   0.0000
     0.0000   0.0000   0.0000   0.0000   0.0000   0.0000   0.0000   0.0000
     0.0000   0.0000   0.0000   0.0000   0.0000   0.0000   0.0000   0.0000
     0.0000   0.0000   0.0000   0.0000   0.0000   0.0000   0.0000   0.0000
     0.0000   0.0000   0.0000   0.0000   0.0000   0.0000   0.0000   0.0000
     0.0000   0.0000   0.0000   0.0000   0.0000   0.0000   0.0000   0.0000
     0.0000   0.0000   0.0000   0.0000   0.0000   0.0000   0.0000   0.0000
     0.0000   0.0000   0.0000   0.0000   0.0000   0.0000   0.0000   0.0000
     0.0000   0.0000   0.0000   0.0000   0.0000   0.0000   0.0000   0.0000
     0.0000   0.0000   0.0000   0.0000   0.0000   0.0000   0.0000   0.0000
     0.0000   0.0000   0.0000   0.0000   0.0000   0.0000   0.0000   0.0000
     0.0000   0.0000   0.0000   0.0000   0.0000   0.0000   0.0000   0.0000
     0.0000   0.0000   0.0000   0.0000   0.0000   0.0000   0.0000   0.0000
     0.0000   0.0000   0.0000   0.0000   0.0000   0.0000   0.0000   0.0000
     0.0000   0.0000   0.0000   0.0000   0.0000   0.0000   0.0000   0.0000
     0.0000   0.0000   0.0000   0.0000   0.0000   0.0000   0.0000   0.0000
     0.0000   0.0000   0.0000   0.0000   0.0000   0.0000   0.0000   0.0000
     0.0000   0.0000   0.0000   0.0000   0.0000   0.0000   0.0000   0.0000
     0.0000   0.0000   0.0000   0.0000   0.0000   0.0000   0.0000   0.0000
     0.0000   0.0000   0.0000   0.0000   0.0000   0.0000   0.0000   0.0000
     0.0000   0.0000   0.0000   0.0000   0.0000   0.0000   0.0000   0.0000
     0.0000   0.0000   0.0000   0.0000   0.0000   0.0000   0.0000   0.0000
     0.0000   0.0000   0.0000   0.0000   0.0000   0.0000   0.0000   0.0000
     0.0000   0.0000   0.0000   0.0000   0.0000   0.0000   0.0000   0.0000
     0.0000   0.0000   0.0000   0.0000   0.0000   0.0000   0.0000   0.0000
     0.0000   0.0000   0.0000   0.0000   0.0000   0.0000   0.0000   0.0000
     0.0000   0.0000   0.0000   0.0000   0.0000   0.0000   0.0000   0.0000
     0.0000   0.0000   0.0000   0.0000   0.0000   0.0000   0.0000   0.0000
     0.0000   0.0000   0.0000   0.0000   0.0000   0.0000   0.0000   0.0000
     0.0000   0.0000   0.0000   0.0000   0.0000   0.0000   0.0000   0.0000
     0.0000   0.0000   0.0000   0.0000   0.0000   0.0000   0.0000   0.0000
     0.0000   0.0000   0.0000   0.0000   0.0000   0.0000   0.0000   0.0000
     0.0000   0.0000   0.0000   0.0000   0.0000   0.0000   0.0000   0.0000
     0.0000   0.0000   0.0000   0.0000   0.0000   0.0000   0.0000   0.0000
     0.0000   0.0000

          k = 0.0000 0.0000 0.0243 (214784 PWs)   bands (ev):

   -98.4012 -98.4012 -98.3999 -98.3999 -98.3957 -98.3957 -98.3956 -98.3956
   -98.3956 -98.3956 -98.3955 -98.3955 -98.3952 -98.3952 -98.3942 -98.3942
   -98.3363 -98.3363 -98.3358 -98.3358 -98.3357 -98.3357 -98.3357 -98.3357
   -98.3353 -98.3353 -98.3352 -98.3352 -98.3345 -98.3345 -98.3339 -98.3339
   -98.3337 -98.3337 -98.3331 -98.3331 -98.3323 -98.3323 -98.3322 -98.3322
   -98.3318 -98.3318 -98.3318 -98.3318 -98.3316 -98.3316 -98.3311 -98.3311
   -98.2509 -98.2509 -98.2508 -98.2508 -98.2506 -98.2506 -98.2506 -98.2506
   -98.2505 -98.2505 -98.2505 -98.2505 -98.2504 -98.2504 -98.2503 -98.2503
   -97.8349 -97.8349 -97.8348 -97.8348 -97.8347 -97.8347 -97.8346 -97.8346
   -97.8342 -97.8342 -97.8341 -97.8341 -97.8341 -97.8341 -97.8340 -97.8340
   -97.8320 -97.8320 -97.8319 -97.8319 -97.8318 -97.8318 -97.8318 -97.8318
   -97.8315 -97.8315 -97.8314 -97.8314 -97.8313 -97.8313 -97.8313 -97.8313
   -97.8024 -97.8024 -97.8024 -97.8024 -97.8024 -97.8024 -97.8022 -97.8022
   -97.8022 -97.8022 -97.8022 -97.8022 -97.8022 -97.8022 -97.8022 -97.8022
   -97.8004 -97.8004 -97.8004 -97.8004 -97.8003 -97.8003 -97.8002 -97.8002
   -97.8001 -97.8001 -97.8001 -97.8001 -97.8001 -97.8001 -97.8001 -97.8001
   -97.3705 -97.3705 -97.3704 -97.3704 -97.3704 -97.3704 -97.3704 -97.3704
   -97.3704 -97.3704 -97.3702 -97.3702 -97.3702 -97.3702 -97.3700 -97.3700
   -62.0892 -62.0892 -62.0855 -62.0855 -62.0854 -62.0854 -62.0850 -62.0850
   -62.0850 -62.0850 -62.0849 -62.0849 -62.0706 -62.0706 -62.0677 -62.0677
   -62.0281 -62.0281 -62.0261 -62.0261 -62.0257 -62.0257 -62.0256 -62.0256
   -62.0238 -62.0238 -62.0238 -62.0238 -62.0215 -62.0215 -62.0191 -62.0191
   -62.0180 -62.0180 -62.0160 -62.0160 -62.0126 -62.0126 -62.0125 -62.0125
   -62.0108 -62.0108 -62.0107 -62.0107 -62.0091 -62.0091 -62.0065 -62.0065
   -61.9366 -61.9366 -61.9366 -61.9366 -61.9364 -61.9364 -61.9362 -61.9362
   -61.9360 -61.9360 -61.9360 -61.9360 -61.9358 -61.9358 -61.9356 -61.9356
   -61.5220 -61.5219 -61.5219 -61.5218 -61.5218 -61.5217 -61.5216 -61.5216
   -61.5195 -61.5194 -61.5193 -61.5193 -61.5192 -61.5192 -61.5191 -61.5191
   -61.5113 -61.5112 -61.5112 -61.5111 -61.5111 -61.5110 -61.5110 -61.5109
   -61.5101 -61.5101 -61.5099 -61.5099 -61.5098 -61.5098 -61.5096 -61.5096
   -61.4872 -61.4872 -61.4871 -61.4871 -61.4871 -61.4871 -61.4870 -61.4870
   -61.4866 -61.4866 -61.4863 -61.4863 -61.4862 -61.4862 -61.4859 -61.4859
   -61.4799 -61.4799 -61.4799 -61.4798 -61.4798 -61.4798 -61.4797 -61.4797
   -61.4793 -61.4793 -61.4791 -61.4791 -61.4791 -61.4791 -61.4789 -61.4789
   -61.0569 -61.0569 -61.0569 -61.0569 -61.0568 -61.0568 -61.0568 -61.0568
   -61.0567 -61.0567 -61.0566 -61.0566 -61.0566 -61.0566 -61.0564 -61.0564
   -45.6400 -45.6400 -45.6369 -45.6369 -45.6302 -45.6301 -45.6290 -45.6290
   -45.6228 -45.6227 -45.6227 -45.6226 -45.6157 -45.6156 -45.6155 -45.6155
   -45.6064 -45.6064 -45.6023 -45.6023 -45.5780 -45.5780 -45.5776 -45.5776
   -45.5763 -45.5762 -45.5741 -45.5741 -45.5658 -45.5658 -45.5604 -45.5604
   -45.5538 -45.5538 -45.5525 -45.5525 -45.5520 -45.5520 -45.5517 -45.5517
   -45.5436 -45.5436 -45.5434 -45.5434 -45.5327 -45.5327 -45.5303 -45.5303
   -45.5259 -45.5258 -45.5237 -45.5237 -45.5180 -45.5180 -45.5170 -45.5169
   -45.5165 -45.5164 -45.5159 -45.5159 -45.5103 -45.5103 -45.5095 -45.5095
   -45.5013 -45.5012 -45.4996 -45.4995 -45.4969 -45.4969 -45.4966 -45.4965
   -45.4913 -45.4913 -45.4891 -45.4891 -45.4890 -45.4890 -45.4849 -45.4849
   -45.4809 -45.4809 -45.4778 -45.4778 -45.4749 -45.4749 -45.4708 -45.4708
   -45.4644 -45.4644 -45.4643 -45.4643 -45.4622 -45.4622 -45.4583 -45.4583
   -45.4289 -45.4288 -45.4282 -45.4282 -45.4272 -45.4272 -45.4267 -45.4266
   -45.4192 -45.4192 -45.4185 -45.4185 -45.4180 -45.4179 -45.4171 -45.4170
   -45.4161 -45.4160 -45.4154 -45.4153 -45.4149 -45.4148 -45.4121 -45.4121
   -45.4104 -45.4103 -45.4082 -45.4081 -45.4071 -45.4071 -45.4055 -45.4055
   -45.0693 -45.0693 -45.0688 -45.0688 -45.0665 -45.0665 -45.0641 -45.0641
   -45.0578 -45.0577 -45.0576 -45.0576 -45.0558 -45.0558 -45.0527 -45.0526
   -45.0408 -45.0408 -45.0390 -45.0389 -45.0380 -45.0380 -45.0356 -45.0356
   -45.0355 -45.0355 -45.0317 -45.0317 -45.0311 -45.0311 -45.0279 -45.0279
   -45.0157 -45.0157 -45.0124 -45.0124 -45.0055 -45.0055 -45.0052 -45.0052
   -45.0025 -45.0025 -45.0011 -45.0011 -44.9954 -44.9954 -44.9928 -44.9928
   -44.9910 -44.9910 -44.9896 -44.9896 -44.9865 -44.9864 -44.9818 -44.9818
   -44.9817 -44.9817 -44.9797 -44.9797 -44.9797 -44.9797 -44.9780 -44.9780
   -44.9762 -44.9762 -44.9727 -44.9727 -44.9720 -44.9720 -44.9709 -44.9709
   -44.9684 -44.9683 -44.9680 -44.9680 -44.9660 -44.9660 -44.9647 -44.9647
   -44.9620 -44.9620 -44.9610 -44.9610 -44.9605 -44.9605 -44.9591 -44.9591
   -44.9567 -44.9567 -44.9559 -44.9559 -44.9555 -44.9555 -44.9552 -44.9552
   -44.9535 -44.9535 -44.9535 -44.9534 -44.9534 -44.9534 -44.9520 -44.9520
   -44.9510 -44.9510 -44.9507 -44.9506 -44.9502 -44.9501 -44.9491 -44.9491
   -44.9257 -44.9257 -44.9255 -44.9255 -44.9255 -44.9255 -44.9237 -44.9237
   -44.9232 -44.9232 -44.9218 -44.9217 -44.9205 -44.9204 -44.9203 -44.9203
   -44.5645 -44.5644 -44.5644 -44.5644 -44.5637 -44.5637 -44.5636 -44.5636
   -44.5635 -44.5634 -44.5634 -44.5633 -44.5627 -44.5626 -44.5626 -44.5626
   -44.5331 -44.5330 -44.5330 -44.5329 -44.5328 -44.5327 -44.5327 -44.5326
   -44.5309 -44.5308 -44.5308 -44.5307 -44.5306 -44.5305 -44.5305 -44.5304
    -1.9482  -1.9482  -1.3211  -1.3211  -1.1699  -1.1699  -1.1647  -1.1647
    -0.6706  -0.6706  -0.6641  -0.6641  -0.5437  -0.5437  -0.3201  -0.3201
    -0.2199  -0.2199  -0.1488  -0.1488  -0.0661  -0.0661   0.0282   0.0282
     0.0414   0.0414   0.1199   0.1199   0.1414   0.1414   0.1548   0.1548
     0.2657   0.2657   0.2759   0.2759   0.2872   0.2872   0.3181   0.3181
     0.3334   0.3334   0.4104   0.4104   0.4129   0.4129   0.4246   0.4246
     0.4490   0.4490   0.4509   0.4509   0.4608   0.4608   0.5141   0.5141
     0.5151   0.5151   0.5863   0.5863   0.6031   0.6031   0.6312   0.6312
     0.6411   0.6411   0.6474   0.6474   0.6695   0.6695   0.6884   0.6884
     0.6991   0.6991   0.7016   0.7016   0.7573   0.7573   0.7593   0.7593
     0.7780   0.7780   0.7808   0.7808   0.7866   0.7866   0.8039   0.8039
     0.8317   0.8317   0.8390   0.8390   0.8650   0.8650   0.8736   0.8736
     0.8792   0.8792   0.9109   0.9109   0.9183   0.9183   0.9234   0.9234
     0.9438   0.9438   0.9461   0.9461   0.9470   0.9470   0.9806   0.9806
     0.9948   0.9948   1.0255   1.0255   1.0379   1.0379   1.0514   1.0514
     1.0790   1.0790   1.0813   1.0813   1.0836   1.0837   1.0871   1.0871
     1.1171   1.1171   1.1540   1.1540   1.1894   1.1894   1.2021   1.2021
     1.2113   1.2113   1.2314   1.2314   1.2516   1.2516   1.2583   1.2583
     1.2933   1.2933   1.3037   1.3037   1.3065   1.3065   1.3685   1.3686
     1.3837   1.3837   1.3862   1.3862   1.4436   1.4437   1.4576   1.4576
     1.4763   1.4763   1.5064   1.5064   1.5323   1.5323   1.5530   1.5530
     1.5589   1.5589   1.5727   1.5727   1.5741   1.5741   1.5769   1.5769
     1.5966   1.5966   1.5982   1.5982   1.6110   1.6110   1.6459   1.6459
     1.6479   1.6479   1.6578   1.6578   1.6600   1.6600   1.6678   1.6678
     1.6803   1.6803   1.6896   1.6896   1.6900   1.6900   1.7143   1.7143
     1.7181   1.7182   1.7512   1.7512   1.7578   1.7578   1.7745   1.7745
     1.7896   1.7896   1.7968   1.7968   1.8167   1.8167   1.8321   1.8321
     1.8350   1.8350   1.8630   1.8630   1.8688   1.8688   1.8957   1.8958
     1.8964   1.8964   1.9098   1.9098   1.9136   1.9136   1.9188   1.9188
     1.9451   1.9451   1.9532   1.9532   1.9543   1.9543   1.9636   1.9637
     1.9656   1.9656   1.9918   1.9918   1.9936   1.9936   2.0202   2.0202
     2.0396   2.0396   2.0523   2.0523   2.0717   2.0717   2.0811   2.0811
     2.0837   2.0837   2.1179   2.1179   2.1310   2.1310   2.1480   2.1480
     2.1581   2.1581   2.1785   2.1785   2.1924   2.1924   2.1924   2.1924
     2.2145   2.2145   2.2187   2.2187   2.2250   2.2250   2.2436   2.2436
     2.2579   2.2579   2.2604   2.2604   2.2674   2.2674   2.2918   2.2918
     2.2946   2.2946   2.3346   2.3346   2.3406   2.3406   2.3556   2.3556
     2.3881   2.3881   2.3984   2.3984   2.4828   2.4828   2.4907   2.4907
     2.4974   2.4974   2.5081   2.5081   2.5284   2.5284   2.5518   2.5518
     2.5522   2.5523   2.5620   2.5620   2.5757   2.5757   2.5984   2.5984
     2.6477   2.6477   2.6608   2.6608   2.6683   2.6683   2.6713   2.6713
     2.6824   2.6824   2.7020   2.7020   2.7040   2.7040   2.7115   2.7115
     2.7168   2.7168   2.7336   2.7336   2.7428   2.7428   2.7676   2.7676
     2.7736   2.7736   2.8022   2.8022   2.8062   2.8062   2.8514   2.8514
     2.8549   2.8549   2.8648   2.8648   2.8974   2.8974   2.9598   2.9598
     3.0159   3.0159   3.0306   3.0306   3.0579   3.0579   3.0659   3.0660
     3.0732   3.0732   3.0877   3.0877   3.1002   3.1002   3.1177   3.1177
     3.1879   3.1879   3.1896   3.1896   3.1920   3.1920   3.1931   3.1931
     3.2534   3.2534   3.2582   3.2582   3.2633   3.2633   3.2712   3.2712
     3.2888   3.2888   3.3059   3.3059   3.3464   3.3464   3.3924   3.3924
     3.3954   3.3954   3.4034   3.4034   3.4245   3.4245   3.4430   3.4430
     3.4519   3.4519   3.4696   3.4696   3.4891   3.4891   3.5053   3.5053
     3.5206   3.5206   3.5661   3.5661   3.5687   3.5687   3.5954   3.5955
     3.6131   3.6131   3.6239   3.6239   3.6312   3.6312   3.6458   3.6458
     3.6556   3.6556   3.6654   3.6655   3.6812   3.6812   3.6901   3.6901
     3.7006   3.7006   3.7060   3.7060   3.7090   3.7091   3.7350   3.7350
     3.7392   3.7392   3.7602   3.7602   3.7633   3.7633   3.7641   3.7641
     3.7902   3.7903   3.8033   3.8033   3.8251   3.8252   3.8367   3.8367
     3.8475   3.8475   3.8669   3.8669   3.8675   3.8675   3.8791   3.8791
     3.8951   3.8951   3.9045   3.9045   3.9238   3.9238   3.9309   3.9309
     3.9312   3.9312   3.9580   3.9580   3.9644   3.9644   3.9771   3.9771
     3.9794   3.9794   4.0000   4.0000   4.0227   4.0227   4.0257   4.0257
     4.0305   4.0305   4.0588   4.0588   4.0719   4.0719   4.0799   4.0799
     4.0810   4.0810   4.0881   4.0881   4.1189   4.1189   4.1243   4.1243
     4.1343   4.1343   4.1621   4.1621   4.1641   4.1642   4.1687   4.1687
     4.1939   4.1939   4.1955   4.1955   4.2197   4.2197   4.2371   4.2371
     4.2535   4.2535   4.2549   4.2549   4.2583   4.2583   4.2762   4.2762
     4.2813   4.2813   4.2849   4.2849   4.3002   4.3002   4.3024   4.3024
     4.3092   4.3092   4.3139   4.3139   4.3239   4.3239   4.3312   4.3312
     4.3398   4.3398   4.3441   4.3441   4.3666   4.3666   4.3847   4.3847
     4.3848   4.3848   4.4025   4.4025   4.4054   4.4054   4.4057   4.4057
     4.4257   4.4257   4.4615   4.4615   4.4708   4.4708   4.4759   4.4759
     4.4925   4.4925   4.5073   4.5073   4.5079   4.5079   4.5331   4.5331
     4.5340   4.5340   4.5360   4.5360   4.5377   4.5377   4.5479   4.5479
     4.5617   4.5617   4.5781   4.5781   4.5833   4.5833   4.5892   4.5892
     4.6077   4.6077   4.6129   4.6129   4.6260   4.6260   4.6366   4.6366
     4.6490   4.6490   4.6499   4.6499   4.6741   4.6741   4.6930   4.6930
     4.7031   4.7031   4.7122   4.7122   4.7297   4.7297   4.7363   4.7363
     4.7505   4.7505   4.7816   4.7816   4.7857   4.7857   4.8008   4.8008
     4.8178   4.8178   4.8202   4.8202   4.8607   4.8607   4.8656   4.8656
     4.8698   4.8698   4.8723   4.8723   4.8883   4.8883   4.8902   4.8902
     4.9232   4.9232   4.9280   4.9280   4.9387   4.9387   4.9425   4.9425
     4.9736   4.9736   4.9950   4.9950   4.9954   4.9954   5.0198   5.0198
     5.0236   5.0236   5.0298   5.0298   5.0379   5.0379   5.0390   5.0390
     5.0650   5.0650   5.0762   5.0762   5.0937   5.0937   5.1041   5.1041
     5.1219   5.1219   5.1238   5.1238   5.1297   5.1297   5.1491   5.1491
     5.1509   5.1509   5.1537   5.1537   5.1541   5.1541   5.1669   5.1669
     5.1782   5.1782   5.1854   5.1854   5.1860   5.1860   5.1963   5.1963
     5.2072   5.2072   5.2184   5.2184   5.2287   5.2287   5.2290   5.2290
     5.2306   5.2306   5.2442   5.2442   5.2663   5.2663   5.2714   5.2714
     5.2862   5.2862   5.2937   5.2937   5.3009   5.3009   5.3043   5.3043
     5.3252   5.3252   5.3326   5.3326   5.3359   5.3359   5.3414   5.3414
     5.3728   5.3728   5.4058   5.4058   5.4298   5.4298   5.4390   5.4390
     5.4700   5.4700   5.4718   5.4718   5.5028   5.5029   5.5068   5.5068
     5.5667   5.5668   5.5753   5.5753   5.6189   5.6189   5.6195   5.6195
     5.7268   5.7268   5.7708   5.7709   5.8458   5.8458   5.9389   5.9389
     5.9419   5.9419   6.1607   6.1607   6.1927   6.1927   6.3115   6.3115
     6.5074   6.5074   6.5225   6.5225   6.5237   6.5237   6.5935   6.5935
     6.7247   6.7247   6.8149   6.8149   6.8884   6.8884   7.1258   7.1258
     7.1757   7.1757   7.2336   7.2336   7.2910   7.2910   7.3171   7.3171
     7.5266   7.5266   7.5883   7.5883   7.6840   7.6840   7.8107   7.8107
     7.8130   7.8130   7.9097   7.9097   8.0555   8.0555   8.0790   8.0790
     8.0962   8.0962   8.2765   8.2765   8.2855   8.2855   8.3595   8.3595
     8.3750   8.3750   8.5379   8.5379   8.5793   8.5793   8.6024   8.6024
     8.7133   8.7133   9.0232   9.0232   9.0462   9.0462   9.0469   9.0469
     9.0607   9.0607   9.1345   9.1345   9.1761   9.1761   9.1829   9.1829
     9.2896   9.2896   9.3260   9.3260   9.4207   9.4207   9.4984   9.4984
     9.5026   9.5026   9.5089   9.5089   9.5192   9.5192   9.5639   9.5639
     9.5950   9.5950   9.6111   9.6111   9.6944   9.6944   9.7554   9.7554
     9.9054   9.9054   9.9141   9.9141   9.9142   9.9142  10.4640  10.4640
    10.4858  10.4858  10.5018  10.5018  10.5343  10.5343  10.5632  10.5632
    10.5753  10.5753  10.5835  10.5835  10.6309  10.6309  10.6524  10.6524
    10.6739  10.6739  10.7236  10.7236  10.9709  10.9709  10.9837  10.9837
    11.0620  11.0620  11.2949  11.2949  11.3503  11.3503  11.4298  11.4298
    11.4813  11.4813  11.4994  11.4994  11.5565  11.5565  11.5717  11.5717
    11.6585  11.6585  11.6858  11.6858  11.7622  11.7622  11.8047  11.8047
    11.8647  11.8647  11.8781  11.8781  11.9517  11.9517  12.0098  12.0098
    12.0184  12.0184  12.0253  12.0253  12.0839  12.0839  12.1831  12.1831
    12.1853  12.1853  12.3518  12.3518  12.4000  12.4000  12.4010  12.4010
    12.4926  12.4926  12.5970  12.5970  12.6326  12.6326  12.6499  12.6499
    12.6653  12.6653  12.8046  12.8046  12.8701  12.8701  12.8839  12.8839
    12.9170  12.9170  12.9979  12.9979  13.0240  13.0240  13.0422  13.0422
    13.1526  13.1526  13.1736  13.1736  13.2392  13.2392  13.2654  13.2654
    13.2763  13.2763  13.3177  13.3177  13.6204  13.6204  13.6261  13.6262
    13.6627  13.6627  13.6942  13.6942  13.7395  13.7395  13.7959  13.7959
    13.8377  13.8377  13.8518  13.8518  13.9577  13.9577  13.9841  13.9842
    14.0855  14.0855  14.1000  14.1000  14.2154  14.2154  14.3864  14.3865
    14.4713  14.4714  14.4869  14.4869  14.4920  14.4920  14.5388  14.5388
    14.5594  14.5594  14.6415  14.6415  14.6732  14.6731  14.7455  14.7455
    14.7455  14.7456  14.7668  14.7669  14.7719  14.7719  14.7820  14.7819
    14.7869  14.7870  14.8252  14.8253  14.9068  14.9068  14.9382  14.9382
    15.0039  15.0040  15.0104  15.0105  15.0210  15.0210  15.0617  15.0618
    15.0643  15.0643  15.1270  15.1270  15.1617  15.1615  15.1836  15.1834
    15.2140  15.2140  15.2650  15.2651  15.2879  15.2878  15.3466  15.3464
    15.4502  15.4511

     occupation numbers 
     1.0000   1.0000   1.0000   1.0000   1.0000   1.0000   1.0000   1.0000
     1.0000   1.0000   1.0000   1.0000   1.0000   1.0000   1.0000   1.0000
     1.0000   1.0000   1.0000   1.0000   1.0000   1.0000   1.0000   1.0000
     1.0000   1.0000   1.0000   1.0000   1.0000   1.0000   1.0000   1.0000
     1.0000   1.0000   1.0000   1.0000   1.0000   1.0000   1.0000   1.0000
     1.0000   1.0000   1.0000   1.0000   1.0000   1.0000   1.0000   1.0000
     1.0000   1.0000   1.0000   1.0000   1.0000   1.0000   1.0000   1.0000
     1.0000   1.0000   1.0000   1.0000   1.0000   1.0000   1.0000   1.0000
     1.0000   1.0000   1.0000   1.0000   1.0000   1.0000   1.0000   1.0000
     1.0000   1.0000   1.0000   1.0000   1.0000   1.0000   1.0000   1.0000
     1.0000   1.0000   1.0000   1.0000   1.0000   1.0000   1.0000   1.0000
     1.0000   1.0000   1.0000   1.0000   1.0000   1.0000   1.0000   1.0000
     1.0000   1.0000   1.0000   1.0000   1.0000   1.0000   1.0000   1.0000
     1.0000   1.0000   1.0000   1.0000   1.0000   1.0000   1.0000   1.0000
     1.0000   1.0000   1.0000   1.0000   1.0000   1.0000   1.0000   1.0000
     1.0000   1.0000   1.0000   1.0000   1.0000   1.0000   1.0000   1.0000
     1.0000   1.0000   1.0000   1.0000   1.0000   1.0000   1.0000   1.0000
     1.0000   1.0000   1.0000   1.0000   1.0000   1.0000   1.0000   1.0000
     1.0000   1.0000   1.0000   1.0000   1.0000   1.0000   1.0000   1.0000
     1.0000   1.0000   1.0000   1.0000   1.0000   1.0000   1.0000   1.0000
     1.0000   1.0000   1.0000   1.0000   1.0000   1.0000   1.0000   1.0000
     1.0000   1.0000   1.0000   1.0000   1.0000   1.0000   1.0000   1.0000
     1.0000   1.0000   1.0000   1.0000   1.0000   1.0000   1.0000   1.0000
     1.0000   1.0000   1.0000   1.0000   1.0000   1.0000   1.0000   1.0000
     1.0000   1.0000   1.0000   1.0000   1.0000   1.0000   1.0000   1.0000
     1.0000   1.0000   1.0000   1.0000   1.0000   1.0000   1.0000   1.0000
     1.0000   1.0000   1.0000   1.0000   1.0000   1.0000   1.0000   1.0000
     1.0000   1.0000   1.0000   1.0000   1.0000   1.0000   1.0000   1.0000
     1.0000   1.0000   1.0000   1.0000   1.0000   1.0000   1.0000   1.0000
     1.0000   1.0000   1.0000   1.0000   1.0000   1.0000   1.0000   1.0000
     1.0000   1.0000   1.0000   1.0000   1.0000   1.0000   1.0000   1.0000
     1.0000   1.0000   1.0000   1.0000   1.0000   1.0000   1.0000   1.0000
     1.0000   1.0000   1.0000   1.0000   1.0000   1.0000   1.0000   1.0000
     1.0000   1.0000   1.0000   1.0000   1.0000   1.0000   1.0000   1.0000
     1.0000   1.0000   1.0000   1.0000   1.0000   1.0000   1.0000   1.0000
     1.0000   1.0000   1.0000   1.0000   1.0000   1.0000   1.0000   1.0000
     1.0000   1.0000   1.0000   1.0000   1.0000   1.0000   1.0000   1.0000
     1.0000   1.0000   1.0000   1.0000   1.0000   1.0000   1.0000   1.0000
     1.0000   1.0000   1.0000   1.0000   1.0000   1.0000   1.0000   1.0000
     1.0000   1.0000   1.0000   1.0000   1.0000   1.0000   1.0000   1.0000
     1.0000   1.0000   1.0000   1.0000   1.0000   1.0000   1.0000   1.0000
     1.0000   1.0000   1.0000   1.0000   1.0000   1.0000   1.0000   1.0000
     1.0000   1.0000   1.0000   1.0000   1.0000   1.0000   1.0000   1.0000
     1.0000   1.0000   1.0000   1.0000   1.0000   1.0000   1.0000   1.0000
     1.0000   1.0000   1.0000   1.0000   1.0000   1.0000   1.0000   1.0000
     1.0000   1.0000   1.0000   1.0000   1.0000   1.0000   1.0000   1.0000
     1.0000   1.0000   1.0000   1.0000   1.0000   1.0000   1.0000   1.0000
     1.0000   1.0000   1.0000   1.0000   1.0000   1.0000   1.0000   1.0000
     1.0000   1.0000   1.0000   1.0000   1.0000   1.0000   1.0000   1.0000
     1.0000   1.0000   1.0000   1.0000   1.0000   1.0000   1.0000   1.0000
     1.0000   1.0000   1.0000   1.0000   1.0000   1.0000   1.0000   1.0000
     1.0000   1.0000   1.0000   1.0000   1.0000   1.0000   1.0000   1.0000
     1.0000   1.0000   1.0000   1.0000   1.0000   1.0000   1.0000   1.0000
     1.0000   1.0000   1.0000   1.0000   1.0000   1.0000   1.0000   1.0000
     1.0000   1.0000   1.0000   1.0000   1.0000   1.0000   1.0000   1.0000
     1.0000   1.0000   1.0000   1.0000   1.0000   1.0000   1.0000   1.0000
     1.0000   1.0000   1.0000   1.0000   1.0000   1.0000   1.0000   1.0000
     1.0000   1.0000   1.0000   1.0000   1.0000   1.0000   1.0000   1.0000
     1.0000   1.0000   1.0000   1.0000   1.0000   1.0000   1.0000   1.0000
     1.0000   1.0000   1.0000   1.0000   1.0000   1.0000   1.0000   1.0000
     1.0000   1.0000   1.0000   1.0000   1.0000   1.0000   1.0000   1.0000
     1.0000   1.0000   1.0000   1.0000   1.0000   1.0000   1.0000   1.0000
     1.0000   1.0000   1.0000   1.0000   1.0000   1.0000   1.0000   1.0000
     1.0000   1.0000   1.0000   1.0000   1.0000   1.0000   1.0000   1.0000
     1.0000   1.0000   1.0000   1.0000   1.0000   1.0000   1.0000   1.0000
     1.0000   1.0000   1.0000   1.0000   1.0000   1.0000   1.0000   1.0000
     1.0000   1.0000   1.0000   1.0000   1.0000   1.0000   1.0000   1.0000
     1.0000   1.0000   1.0000   1.0000   1.0000   1.0000   1.0000   1.0000
     1.0000   1.0000   1.0000   1.0000   1.0000   1.0000   1.0000   1.0000
     1.0000   1.0000   1.0000   1.0000   1.0000   1.0000   1.0000   1.0000
     1.0000   1.0000   1.0000   1.0000   1.0000   1.0000   1.0000   1.0000
     1.0000   1.0000   1.0000   1.0000   1.0000   1.0000   1.0000   1.0000
     1.0000   1.0000   1.0000   1.0000   1.0000   1.0000   1.0000   1.0000
     1.0000   1.0000   1.0000   1.0000   1.0000   1.0000   1.0000   1.0000
     1.0000   1.0000   1.0000   1.0000   1.0000   1.0000   1.0000   1.0000
     1.0000   1.0000   1.0000   1.0000   1.0000   1.0000   1.0000   1.0000
     1.0000   1.0000   1.0000   1.0000   1.0000   1.0000   1.0000   1.0000
     1.0000   1.0000   1.0000   1.0000   1.0000   1.0000   1.0000   1.0000
     1.0000   1.0000   1.0000   1.0000   1.0000   1.0000   1.0000   1.0000
     1.0000   1.0000   1.0000   1.0000   1.0000   1.0000   1.0000   1.0000
     1.0000   1.0000   1.0000   1.0000   1.0000   1.0000   1.0000   1.0000
     1.0000   1.0000   1.0000   1.0000   1.0000   1.0000   1.0000   1.0000
     1.0000   1.0000   1.0000   1.0000   1.0000   1.0000   1.0000   1.0000
     1.0000   1.0000   1.0000   1.0000   1.0000   1.0000   1.0000   1.0000
     1.0000   1.0000   1.0000   1.0000   1.0000   1.0000   1.0000   1.0000
     1.0000   1.0000   1.0000   1.0000   1.0000   1.0000   1.0000   1.0000
     1.0000   1.0000   1.0000   1.0000   1.0000   1.0000   1.0000   1.0000
     1.0000   1.0000   1.0000   1.0000   1.0000   1.0000   1.0000   1.0000
     1.0000   1.0000   1.0000   1.0000   1.0000   1.0000   1.0000   1.0000
     1.0000   1.0000   1.0000   1.0000   1.0000   1.0000   1.0000   1.0000
     1.0000   1.0000   1.0000   1.0000   1.0000   1.0000   1.0000   1.0000
     1.0000   1.0000   1.0000   1.0000   1.0000   1.0000   1.0000   1.0000
     1.0000   1.0000   1.0000   1.0000   1.0000   1.0000   1.0000   1.0000
     1.0000   1.0000   1.0000   1.0000   1.0000   1.0000   1.0000   1.0000
     1.0000   1.0000   1.0000   1.0000   1.0000   1.0000   1.0000   1.0000
     1.0000   1.0000   1.0000   1.0000   1.0000   1.0000   1.0000   1.0000
     1.0000   1.0000   1.0000   1.0000   1.0000   1.0000   1.0000   1.0000
     1.0000   1.0000   1.0000   1.0000   1.0000   1.0000   1.0000   1.0000
     1.0000   1.0000   1.0000   1.0000   1.0000   1.0000   1.0000   1.0000
     1.0000   1.0000   1.0000   1.0000   1.0000   1.0000   1.0000   1.0000
     1.0000   1.0000   1.0000   1.0000   1.0000   1.0000   1.0000   1.0000
     1.0000   1.0000   1.0000   1.0000   1.0000   1.0000   1.0000   1.0000
     1.0000   1.0000   1.0000   1.0000   1.0000   1.0000   1.0000   1.0000
     1.0000   1.0000   1.0000   1.0000   1.0000   1.0000   1.0000   1.0000
     1.0000   1.0000   1.0000   1.0000   1.0000   1.0000   1.0000   1.0000
     1.0000   1.0000   1.0000   1.0000   1.0000   1.0000   1.0000   1.0000
     1.0000   1.0000   1.0000   1.0000   1.0000   1.0000   1.0000   1.0000
     1.0000   1.0000   1.0000   1.0000   1.0000   1.0000   1.0000   1.0000
     1.0000   1.0000   1.0000   1.0000   1.0000   1.0000   1.0000   1.0000
     1.0000   1.0000   1.0000   1.0000   1.0000   1.0000   1.0000   1.0000
     1.0000   1.0000   1.0000   1.0000   1.0000   1.0000   1.0000   1.0000
     1.0000   1.0000   1.0000   1.0000   1.0000   1.0000   1.0000   1.0000
     1.0000   1.0000   1.0000   1.0000   1.0000   1.0000   1.0000   1.0000
     1.0000   1.0000   1.0000   1.0000   1.0000   1.0000   1.0000   1.0000
     1.0000   1.0000   1.0000   1.0000   1.0000   1.0000   1.0000   1.0000
     1.0000   1.0000   1.0000   1.0000   1.0000   1.0000   1.0000   1.0000
     1.0000   1.0000   1.0000   1.0000   1.0000   1.0000   1.0000   1.0000
     1.0000   1.0000   1.0000   1.0000   1.0000   1.0000   1.0000   1.0000
     1.0000   1.0000   1.0000   1.0000   1.0000   1.0000   1.0000   1.0000
     1.0000   1.0000   1.0000   1.0000   1.0000   1.0000   1.0000   1.0000
     1.0000   1.0000   1.0000   1.0000   1.0000   1.0000   1.0000   1.0000
     1.0000   1.0000   1.0000   1.0000   1.0000   1.0000   1.0000   1.0000
     1.0000   1.0000   1.0000   1.0000   1.0000   1.0000   1.0000   1.0000
     1.0000   1.0000   1.0000   1.0000   1.0000   1.0000   1.0000   1.0000
     1.0000   1.0000   1.0000   1.0000   1.0000   1.0000   1.0000   1.0000
     1.0000   1.0000   1.0000   1.0000   1.0000   1.0000   1.0000   1.0000
     1.0000   1.0000   1.0000   1.0000   1.0000   1.0000   1.0000   1.0000
     1.0000   1.0000   1.0000   1.0000   1.0000   1.0000   1.0000   1.0000
     1.0000   1.0000   1.0000   1.0000   1.0000   1.0000   1.0000   1.0000
     1.0000   1.0000   1.0000   1.0000   1.0000   1.0000   1.0000   1.0000
     1.0000   1.0000   1.0000   1.0000   1.0000   1.0000   1.0000   1.0000
     1.0000   1.0000   1.0000   1.0000   1.0000   1.0000   1.0000   1.0000
[...]
     atom   67 type  1   force =  -212.51327029   31.94467290   -0.00008978
     atom   68 type  1   force =  -212.51335262  -31.94459243    0.00013542
     atom   69 type  1   force =  -115.65735268 -115.65742387    0.00006460
     atom   70 type  1   force =   -96.61943973 -198.62139624    0.00006475
     atom   71 type  1   force =  -198.62150291  -96.61955918    0.00003902
     atom   72 type  1   force =  -160.06062897 -160.06069287   -0.00002864
     The core correction contribution to forces
     atom    1 type  1   force =     0.00910108    0.00910654   -0.00000032
     atom    2 type  1   force =     0.01571588   -0.00193202    0.00000767
     atom    3 type  1   force =    -0.00193664    0.01569716    0.00000619
     atom    4 type  1   force =    -0.00269296   -0.00269455   -0.00000043
     atom    5 type  1   force =     0.01547445    0.00015556    0.00000182
     atom    6 type  1   force =     0.01548521   -0.00016255    0.00000382
     atom    7 type  1   force =    -0.00141079    0.00007724    0.00000423
     atom    8 type  1   force =    -0.00141766   -0.00004930   -0.00000508
     atom    9 type  1   force =     0.01569245    0.00192748   -0.00000266
     atom   10 type  1   force =     0.00910627   -0.00910426    0.00001094
     atom   11 type  1   force =    -0.00268665    0.00268208   -0.00000596
     atom   12 type  1   force =    -0.00192760   -0.01571087    0.00000523
     atom   13 type  1   force =     0.00015030    0.01547464   -0.00000151
     atom   14 type  1   force =     0.00005343   -0.00139485   -0.00000147
     atom   15 type  1   force =    -0.00015608    0.01549089    0.00000117
     atom   16 type  1   force =    -0.00006953   -0.00139903    0.00000089
     atom   17 type  1   force =    -0.00044793   -0.00044864   -0.00001164
     atom   18 type  1   force =    -0.00044510    0.00044021   -0.00000920
     atom   19 type  1   force =     0.00044570   -0.00044031    0.00000145
     atom   20 type  1   force =     0.00044454    0.00043988    0.00000696
     atom   21 type  1   force =     0.00005827    0.00140606    0.00000419
     atom   22 type  1   force =     0.00015104   -0.01548462    0.00000271
     atom   23 type  1   force =    -0.00004368    0.00140550    0.00000797
     atom   24 type  1   force =    -0.00014889   -0.01547739    0.00000360
     atom   25 type  1   force =     0.00193196    0.01570412    0.00000526
     atom   26 type  1   force =     0.00268847   -0.00268321    0.00000933
     atom   27 type  1   force =    -0.00910630    0.00910032    0.00000272
     atom   28 type  1   force =    -0.01569786   -0.00192758    0.00000156
     atom   29 type  1   force =     0.00141799    0.00006019    0.00000178
     atom   30 type  1   force =     0.00140707   -0.00007608    0.00000126
     atom   31 type  1   force =    -0.01547387    0.00015093   -0.00000146
     atom   32 type  1   force =    -0.01547700   -0.00014737    0.00000170
     atom   33 type  1   force =     0.00270057    0.00269762   -0.00000516
     atom   34 type  1   force =     0.00192434   -0.01570294   -0.00000273
     atom   35 type  1   force =    -0.01572307    0.00193344    0.00000273
     atom   36 type  1   force =    -0.00911064   -0.00911689    0.00000323
     atom   37 type  1   force =     0.00909942    0.00910962   -0.00000557
     atom   38 type  1   force =     0.01571572   -0.00193709   -0.00000346
     atom   39 type  1   force =    -0.00193724    0.01570177    0.00000683
     atom   40 type  1   force =    -0.00269547   -0.00269233   -0.00000221
     atom   41 type  1   force =     0.01547984    0.00014689   -0.00000683
     atom   42 type  1   force =     0.01548321   -0.00015923   -0.00000664
     atom   43 type  1   force =    -0.00141155    0.00008133    0.00000264
     atom   44 type  1   force =    -0.00141490   -0.00004828    0.00000579
     atom   45 type  1   force =     0.01570124    0.00192435   -0.00000534
     atom   46 type  1   force =     0.00911011   -0.00910503    0.00000653
     atom   47 type  1   force =    -0.00269028    0.00268912   -0.00000895
     atom   48 type  1   force =    -0.00192872   -0.01570836   -0.00000059
     atom   49 type  1   force =     0.00014901    0.01547319    0.00000416
     atom   50 type  1   force =     0.00004113   -0.00139311    0.00000527
     atom   51 type  1   force =    -0.00014787    0.01548965    0.00000808
     atom   52 type  1   force =    -0.00005595   -0.00140210    0.00000177
     atom   53 type  1   force =    -0.00043789   -0.00044691   -0.00000236
     atom   54 type  1   force =    -0.00043475    0.00044927   -0.00000220
     atom   55 type  1   force =     0.00044385   -0.00044799   -0.00000391
     atom   56 type  1   force =     0.00042986    0.00044659    0.00000327
     atom   57 type  1   force =     0.00004986    0.00139889   -0.00000514
     atom   58 type  1   force =     0.00014780   -0.01549442    0.00000117
     atom   59 type  1   force =    -0.00005366    0.00139680    0.00000125
     atom   60 type  1   force =    -0.00014076   -0.01547597   -0.00000054
     atom   61 type  1   force =     0.00192611    0.01570453    0.00000703
     atom   62 type  1   force =     0.00268653   -0.00268941    0.00000470
     atom   63 type  1   force =    -0.00911054    0.00909990    0.00000656
     atom   64 type  1   force =    -0.01569947   -0.00192439    0.00000162
     atom   65 type  1   force =     0.00140468    0.00005051   -0.00000400
     atom   66 type  1   force =     0.00141067   -0.00007270   -0.00000206
     atom   67 type  1   force =    -0.01547724    0.00016554   -0.00000924
     atom   68 type  1   force =    -0.01547337   -0.00015620    0.00000917
     atom   69 type  1   force =     0.00269727    0.00268965    0.00000056
     atom   70 type  1   force =     0.00193336   -0.01570259    0.00000039
     atom   71 type  1   force =    -0.01571621    0.00192562   -0.00000088
     atom   72 type  1   force =    -0.00910023   -0.00910788   -0.00000886
     The Hubbard contrib.    to forces
     atom    1 type  1   force =     0.00000000    0.00000000    0.00000000
     atom    2 type  1   force =     0.00000000    0.00000000    0.00000000
     atom    3 type  1   force =     0.00000000    0.00000000    0.00000000
     atom    4 type  1   force =     0.00000000    0.00000000    0.00000000
     atom    5 type  1   force =     0.00000000    0.00000000    0.00000000
     atom    6 type  1   force =     0.00000000    0.00000000    0.00000000
     atom    7 type  1   force =     0.00000000    0.00000000    0.00000000
     atom    8 type  1   force =     0.00000000    0.00000000    0.00000000
     atom    9 type  1   force =     0.00000000    0.00000000    0.00000000
     atom   10 type  1   force =     0.00000000    0.00000000    0.00000000
     atom   11 type  1   force =     0.00000000    0.00000000    0.00000000
     atom   12 type  1   force =     0.00000000    0.00000000    0.00000000
     atom   13 type  1   force =     0.00000000    0.00000000    0.00000000
     atom   14 type  1   force =     0.00000000    0.00000000    0.00000000
     atom   15 type  1   force =     0.00000000    0.00000000    0.00000000
     atom   16 type  1   force =     0.00000000    0.00000000    0.00000000
     atom   17 type  1   force =     0.00000000    0.00000000    0.00000000
     atom   18 type  1   force =     0.00000000    0.00000000    0.00000000
     atom   19 type  1   force =     0.00000000    0.00000000    0.00000000
     atom   20 type  1   force =     0.00000000    0.00000000    0.00000000
     atom   21 type  1   force =     0.00000000    0.00000000    0.00000000
     atom   22 type  1   force =     0.00000000    0.00000000    0.00000000
     atom   23 type  1   force =     0.00000000    0.00000000    0.00000000
     atom   24 type  1   force =     0.00000000    0.00000000    0.00000000
     atom   25 type  1   force =     0.00000000    0.00000000    0.00000000
     atom   26 type  1   force =     0.00000000    0.00000000    0.00000000
     atom   27 type  1   force =     0.00000000    0.00000000    0.00000000
     atom   28 type  1   force =     0.00000000    0.00000000    0.00000000
     atom   29 type  1   force =     0.00000000    0.00000000    0.00000000
     atom   30 type  1   force =     0.00000000    0.00000000    0.00000000
     atom   31 type  1   force =     0.00000000    0.00000000    0.00000000
     atom   32 type  1   force =     0.00000000    0.00000000    0.00000000
     atom   33 type  1   force =     0.00000000    0.00000000    0.00000000
     atom   34 type  1   force =     0.00000000    0.00000000    0.00000000
     atom   35 type  1   force =     0.00000000    0.00000000    0.00000000
     atom   36 type  1   force =     0.00000000    0.00000000    0.00000000
     atom   37 type  1   force =     0.00000000    0.00000000    0.00000000
     atom   38 type  1   force =     0.00000000    0.00000000    0.00000000
     atom   39 type  1   force =     0.00000000    0.00000000    0.00000000
     atom   40 type  1   force =     0.00000000    0.00000000    0.00000000
     atom   41 type  1   force =     0.00000000    0.00000000    0.00000000
     atom   42 type  1   force =     0.00000000    0.00000000    0.00000000
     atom   43 type  1   force =     0.00000000    0.00000000    0.00000000
     atom   44 type  1   force =     0.00000000    0.00000000    0.00000000
     atom   45 type  1   force =     0.00000000    0.00000000    0.00000000
     atom   46 type  1   force =     0.00000000    0.00000000    0.00000000
     atom   47 type  1   force =     0.00000000    0.00000000    0.00000000
     atom   48 type  1   force =     0.00000000    0.00000000    0.00000000
     atom   49 type  1   force =     0.00000000    0.00000000    0.00000000
     atom   50 type  1   force =     0.00000000    0.00000000    0.00000000
     atom   51 type  1   force =     0.00000000    0.00000000    0.00000000
     atom   52 type  1   force =     0.00000000    0.00000000    0.00000000
     atom   53 type  1   force =     0.00000000    0.00000000    0.00000000
     atom   54 type  1   force =     0.00000000    0.00000000    0.00000000
     atom   55 type  1   force =     0.00000000    0.00000000    0.00000000
     atom   56 type  1   force =     0.00000000    0.00000000    0.00000000
     atom   57 type  1   force =     0.00000000    0.00000000    0.00000000
     atom   58 type  1   force =     0.00000000    0.00000000    0.00000000
     atom   59 type  1   force =     0.00000000    0.00000000    0.00000000
     atom   60 type  1   force =     0.00000000    0.00000000    0.00000000
     atom   61 type  1   force =     0.00000000    0.00000000    0.00000000
     atom   62 type  1   force =     0.00000000    0.00000000    0.00000000
     atom   63 type  1   force =     0.00000000    0.00000000    0.00000000
     atom   64 type  1   force =     0.00000000    0.00000000    0.00000000
     atom   65 type  1   force =     0.00000000    0.00000000    0.00000000
     atom   66 type  1   force =     0.00000000    0.00000000    0.00000000
     atom   67 type  1   force =     0.00000000    0.00000000    0.00000000
     atom   68 type  1   force =     0.00000000    0.00000000    0.00000000
     atom   69 type  1   force =     0.00000000    0.00000000    0.00000000
     atom   70 type  1   force =     0.00000000    0.00000000    0.00000000
     atom   71 type  1   force =     0.00000000    0.00000000    0.00000000
     atom   72 type  1   force =     0.00000000    0.00000000    0.00000000
     The SCF correction term to forces
     atom    1 type  1   force =     0.03079067    0.03078088   -0.00007730
     atom    2 type  1   force =     0.08776945    0.01543134    0.00006303
     atom    3 type  1   force =     0.01542722    0.08776062   -0.00000272
     atom    4 type  1   force =     0.05406559    0.05403476   -0.00001594
     atom    5 type  1   force =     0.11377377    0.00620900    0.00007270
     atom    6 type  1   force =     0.11385121   -0.00606236    0.00005384
     atom    7 type  1   force =     0.07415794    0.01766767   -0.00000503
     atom    8 type  1   force =     0.07406248   -0.01750387    0.00003600
     atom    9 type  1   force =     0.08781457   -0.01547396    0.00001034
     atom   10 type  1   force =     0.03084721   -0.03082200   -0.00002621
     atom   11 type  1   force =     0.05404028   -0.05402147    0.00001144
     atom   12 type  1   force =     0.01545908   -0.08775775    0.00002445
     atom   13 type  1   force =     0.00612379    0.11374644   -0.00004350
     atom   14 type  1   force =     0.01754986    0.07418552    0.00007388
     atom   15 type  1   force =    -0.00610602    0.11376542    0.00003453
     atom   16 type  1   force =    -0.01754888    0.07413633    0.00002037
     atom   17 type  1   force =     0.02474830    0.02474590    0.00005802
     atom   18 type  1   force =     0.02470283   -0.02472263    0.00003849
     atom   19 type  1   force =    -0.02478733    0.02467057    0.00006412
     atom   20 type  1   force =    -0.02490965   -0.02474492    0.00002015
     atom   21 type  1   force =     0.01750682   -0.07409735    0.00007412
     atom   22 type  1   force =     0.00605194   -0.11380311    0.00001556
     atom   23 type  1   force =    -0.01772177   -0.07410574   -0.00001803
     atom   24 type  1   force =    -0.00612988   -0.11377576    0.00007421
     atom   25 type  1   force =    -0.01541177    0.08772698    0.00004149
     atom   26 type  1   force =    -0.05404134    0.05398824   -0.00003646
     atom   27 type  1   force =    -0.03083571    0.03089702   -0.00002337
     atom   28 type  1   force =    -0.08768926    0.01536562    0.00007414
     atom   29 type  1   force =    -0.07407875    0.01742519   -0.00000249
     atom   30 type  1   force =    -0.07408561   -0.01760546    0.00004194
     atom   31 type  1   force =    -0.11379636    0.00607397    0.00000928
     atom   32 type  1   force =    -0.11369896   -0.00616483    0.00005996
     atom   33 type  1   force =    -0.05405956   -0.05396715    0.00002775
     atom   34 type  1   force =    -0.01539673   -0.08774507    0.00007626
     atom   35 type  1   force =    -0.08767255   -0.01543583    0.00001652
     atom   36 type  1   force =    -0.03075013   -0.03075973    0.00005264
     atom   37 type  1   force =     0.03079418    0.03086524    0.00004193
     atom   38 type  1   force =     0.08769973    0.01537445   -0.00007077
     atom   39 type  1   force =     0.01541599    0.08771735   -0.00006721
     atom   40 type  1   force =     0.05404890    0.05401767   -0.00001202
     atom   41 type  1   force =     0.11379646    0.00617875    0.00000564
     atom   42 type  1   force =     0.11378683   -0.00609119    0.00001224
     atom   43 type  1   force =     0.07408107    0.01769186   -0.00002297
     atom   44 type  1   force =     0.07404555   -0.01751637   -0.00008676
     atom   45 type  1   force =     0.08778648   -0.01548643   -0.00004563
     atom   46 type  1   force =     0.03082755   -0.03083801    0.00004644
     atom   47 type  1   force =     0.05399669   -0.05402537    0.00002467
     atom   48 type  1   force =     0.01542886   -0.08778797   -0.00003749
     atom   49 type  1   force =     0.00611696    0.11383838    0.00004322
     atom   50 type  1   force =     0.01758059    0.07406658   -0.00005455
     atom   51 type  1   force =    -0.00615854    0.11369370   -0.00006188
     atom   52 type  1   force =    -0.01760413    0.07407979   -0.00002662
     atom   53 type  1   force =     0.02473219    0.02477310   -0.00006459
     atom   54 type  1   force =     0.02460350   -0.02473078    0.00001265
     atom   55 type  1   force =    -0.02474803    0.02472386   -0.00003634
     atom   56 type  1   force =    -0.02480656   -0.02477445   -0.00003517
     atom   57 type  1   force =     0.01747953   -0.07412362   -0.00007706
     atom   58 type  1   force =     0.00603991   -0.11378175   -0.00000922
     atom   59 type  1   force =    -0.01760726   -0.07407521   -0.00002279
     atom   60 type  1   force =    -0.00621585   -0.11377993   -0.00009607
     atom   61 type  1   force =    -0.01547824    0.08772443   -0.00005053
     atom   62 type  1   force =    -0.05407390    0.05406094    0.00000344
     atom   63 type  1   force =    -0.03074739    0.03074142   -0.00000668
     atom   64 type  1   force =    -0.08772674    0.01541385   -0.00003441
     atom   65 type  1   force =    -0.07417618    0.01749086    0.00002758
     atom   66 type  1   force =    -0.07410906   -0.01764643   -0.00006825
     atom   67 type  1   force =    -0.11380797    0.00607517    0.00001654
     atom   68 type  1   force =    -0.11370165   -0.00608712   -0.00006114
     atom   69 type  1   force =    -0.05402353   -0.05401659   -0.00006468
     atom   70 type  1   force =    -0.01546283   -0.08768083   -0.00006032
     atom   71 type  1   force =    -0.08767157   -0.01539220   -0.00004734
     atom   72 type  1   force =    -0.03082383   -0.03078536   -0.00002697

     Total force =     0.105149     Total SCF correction =     0.706520
     SCF correction compared to forces is large: reduce conv_thr to get better values

     Writing all to output data dir ./calc.save/

     init_run     :     42.09s CPU     42.74s WALL (       1 calls)
     electrons    :   4560.23s CPU   4600.63s WALL (       1 calls)
     forces       :     94.41s CPU     95.25s WALL (       1 calls)

     Called by init_run:
     wfcinit      :     40.16s CPU     40.73s WALL (       1 calls)
     wfcinit:wfcr :     39.82s CPU     40.34s WALL (       2 calls)
     potinit      :      0.19s CPU      0.19s WALL (       1 calls)
     hinit0       :      1.08s CPU      1.09s WALL (       1 calls)

     Called by electrons:
     c_bands      :   4426.96s CPU   4466.06s WALL (       9 calls)
     sum_band     :    132.58s CPU    133.59s WALL (       9 calls)
     v_of_rho     :      0.46s CPU      0.47s WALL (       9 calls)
     v_h          :      0.02s CPU      0.02s WALL (       9 calls)
     v_xc         :      0.48s CPU      0.48s WALL (      10 calls)
     mix_rho      :      0.14s CPU      0.14s WALL (       9 calls)

     Called by c_bands:
     init_us_2    :      0.21s CPU      0.21s WALL (      40 calls)
     init_us_2:cp :      0.21s CPU      0.21s WALL (      40 calls)
     ccgdiagg     :   4068.55s CPU   4104.11s WALL (      22 calls)
     wfcrot       :    397.34s CPU    401.39s WALL (      20 calls)

     Called by sum_band:
     sum_band:wei :      0.02s CPU      0.02s WALL (       9 calls)
     sum_band:loo :    132.43s CPU    133.44s WALL (       9 calls)
     sum_band:buf :      0.07s CPU      0.07s WALL (      18 calls)
     sum_band:ini :      0.09s CPU      0.09s WALL (      18 calls)

     Called by *cgdiagg:
     h_psi        :   2905.07s CPU   2930.21s WALL (  119484 calls)

     Called by h_psi:
     h_psi:calbec :    838.17s CPU    847.82s WALL (  119484 calls)
     vloc_psi     :   1292.49s CPU   1304.52s WALL (  119484 calls)
     add_vuspsi   :    772.29s CPU    776.12s WALL (  119484 calls)
     hs_1psi      :   2551.67s CPU   2572.98s WALL (  119464 calls)
     s_1psi       :    749.32s CPU    757.82s WALL (  119464 calls)

     General routines
     calbec       :   1609.82s CPU   1628.95s WALL (  238956 calls)
     fft          :      3.71s CPU      3.72s WALL (     125 calls)
     ffts         :      0.10s CPU      0.10s WALL (      36 calls)
     fftw         :   1367.74s CPU   1380.04s WALL (  669256 calls)

     Parallel routines
     fft_scatt_xy :     43.99s CPU     44.25s WALL (  669417 calls)
     fft_scatt_yz :   1077.99s CPU   1088.34s WALL (  669417 calls)

     PWSCF        :      1h19m CPU      1h20m WALL


   This run was terminated on:   1:17:37  24Feb2023            

=------------------------------------------------------------------------------=
   JOB DONE.
=------------------------------------------------------------------------------=
