
.Version 9.6.2 of ABINIT 
.(MPI version, prepared for a x86_64_linux_gnu10.3 computer) 

.Copyright (C) 1998-2021 ABINIT group . 
 ABINIT comes with ABSOLUTELY NO WARRANTY.
 It is free software, and you are welcome to redistribute it
 under certain conditions (GNU General Public License,
 see ~abinit/COPYING or http://www.gnu.org/copyleft/gpl.txt).

 ABINIT is a project of the Universite Catholique de Louvain,
 Corning Inc. and other collaborators, see ~abinit/doc/developers/contributors.txt .
 Please read https://docs.abinit.org/theory/acknowledgments for suggested
 acknowledgments of the ABINIT effort.
 For more information, see https://www.abinit.org .

.Starting date : Thu  8 Dec 2022.
- ( at 14h32 )
  
- input  file    -> NiC2O4.in
- output file    -> NiC2O4.out
- root for input  files -> abi
- root for output files -> abo


 Symmetries : space group P1 (#  1); Bravais aP (primitive triclinic)
================================================================================
 Values of the parameters that define the memory need of the present run
     intxc =       0    ionmov =       0      iscf =       7    lmnmax =       6
     lnmax =       6     mgfft =     180  mpssoang =       3    mqgrid =    7031
     natom =      14  nloc_mem =       1    nspden =       2   nspinor =       1
    nsppol =       2      nsym =       1    n1xccc =       0    ntypat =       3
    occopt =       3   xclevel =       2
-    mband =          65        mffmem =           1         mkmem =           1
       mpw =      181721          nfft =     3888000          nkpt =           4
================================================================================
P This job should need less than                    2265.382 Mbytes of memory.
  Rough estimation (10% accuracy) of disk space for files :
_ WF disk file :   1441.880 Mbytes ; DEN or POT disk file :     59.328 Mbytes.
================================================================================

--------------------------------------------------------------------------------
------------- Echo of variables that govern the present computation ------------
--------------------------------------------------------------------------------
-
- outvars: echo of selected default values                                      
-   iomode0 =  0 , fftalg0 =312 , wfoptalg0 =  0
-
- outvars: echo of global parameters not present in the input file              
-  max_nthreads =    0
-
 -outvars: echo values of preprocessed input variables --------
            acell      1.0000000000E+00  1.0000000000E+00  1.0000000000E+00 Bohr
              amu      5.86900000E+01  1.20110000E+01  1.59994000E+01
        autoparal           1
           diemac      1.00000000E+00
           diemix      4.00000000E-01
             ecut      2.50000000E+02 Hartree
           ecutsm      5.00000000E-01 Hartree
-          fftalg         312
              ixc     -263267
              kpt      2.50000000E-01  2.50000000E-01  2.50000000E-01
                      -2.50000000E-01  2.50000000E-01  2.50000000E-01
                       2.50000000E-01 -2.50000000E-01  2.50000000E-01
                      -2.50000000E-01 -2.50000000E-01  2.50000000E-01
         kptrlatt        2    0    0      0    2    0      0    0    2
          kptrlen      1.92252067E+01
P           mkmem           1
            natom          14
            nband          65
            ngfft         150     144     180
             nkpt           4
-        np_spkpt           8
           nspden           2
           nsppol           2
            nstep          60
             nsym           1
           ntypat           3
              occ      1.000000  1.000000  1.000000  1.000000  1.000000  1.000000
                       1.000000  1.000000  1.000000  1.000000  1.000000  1.000000
                       1.000000  1.000000  1.000000  1.000000  1.000000  1.000000
                       1.000000  1.000000  1.000000  1.000000  1.000000  1.000000
                       1.000000  1.000000  1.000000  1.000000  1.000000  1.000000
                       1.000000  1.000000  1.000000  1.000000  1.000000  1.000000
                       1.000000  1.000000  1.000000  1.000000  1.000000  1.000000
                       1.000000  1.000000  1.000000  1.000000  1.000000  1.000000
                       1.000000  1.000000  0.000000  0.000000  0.000000  0.000000
                       0.000000  0.000000  0.000000  0.000000  0.000000  0.000000
                       0.000000  0.000000  0.000000  0.000000  0.000000
                       1.000000  1.000000  1.000000  1.000000  1.000000  1.000000
                       1.000000  1.000000  1.000000  1.000000  1.000000  1.000000
                       1.000000  1.000000  1.000000  1.000000  1.000000  1.000000
                       1.000000  1.000000  1.000000  1.000000  1.000000  1.000000
                       1.000000  1.000000  1.000000  1.000000  1.000000  1.000000
                       1.000000  1.000000  1.000000  1.000000  1.000000  1.000000
                       1.000000  1.000000  1.000000  1.000000  1.000000  1.000000
                       1.000000  1.000000  1.000000  1.000000  1.000000  1.000000
                       1.000000  1.000000  0.000000  0.000000  0.000000  0.000000
                       0.000000  0.000000  0.000000  0.000000  0.000000  0.000000
                       0.000000  0.000000  0.000000  0.000000  0.000000
                       1.000000  1.000000  1.000000  1.000000  1.000000  1.000000
                       1.000000  1.000000  1.000000  1.000000  1.000000  1.000000
                       1.000000  1.000000  1.000000  1.000000  1.000000  1.000000
                       1.000000  1.000000  1.000000  1.000000  1.000000  1.000000
                       1.000000  1.000000  1.000000  1.000000  1.000000  1.000000
                       1.000000  1.000000  1.000000  1.000000  1.000000  1.000000
                       1.000000  1.000000  1.000000  1.000000  1.000000  1.000000
                       1.000000  1.000000  1.000000  1.000000  1.000000  1.000000
                       1.000000  1.000000  0.000000  0.000000  0.000000  0.000000
                       0.000000  0.000000  0.000000  0.000000  0.000000  0.000000
                       0.000000  0.000000  0.000000  0.000000  0.000000
                       1.000000  1.000000  1.000000  1.000000  1.000000  1.000000
                       1.000000  1.000000  1.000000  1.000000  1.000000  1.000000
                       1.000000  1.000000  1.000000  1.000000  1.000000  1.000000
                       1.000000  1.000000  1.000000  1.000000  1.000000  1.000000
                       1.000000  1.000000  1.000000  1.000000  1.000000  1.000000
                       1.000000  1.000000  1.000000  1.000000  1.000000  1.000000
                       1.000000  1.000000  1.000000  1.000000  1.000000  1.000000
                       1.000000  1.000000  1.000000  1.000000  1.000000  1.000000
                       1.000000  1.000000  0.000000  0.000000  0.000000  0.000000
                       0.000000  0.000000  0.000000  0.000000  0.000000  0.000000
                       0.000000  0.000000  0.000000  0.000000  0.000000
                       1.000000  1.000000  1.000000  1.000000  1.000000  1.000000
                       1.000000  1.000000  1.000000  1.000000  1.000000  1.000000
                       1.000000  1.000000  1.000000  1.000000  1.000000  1.000000
                       1.000000  1.000000  1.000000  1.000000  1.000000  1.000000
                       1.000000  1.000000  1.000000  1.000000  1.000000  1.000000
                       1.000000  1.000000  1.000000  1.000000  1.000000  1.000000
                       1.000000  1.000000  1.000000  1.000000  1.000000  1.000000
                       1.000000  1.000000  1.000000  1.000000  1.000000  1.000000
                       1.000000  1.000000  0.000000  0.000000  0.000000  0.000000
                       0.000000  0.000000  0.000000  0.000000  0.000000  0.000000
                       0.000000  0.000000  0.000000  0.000000  0.000000
                       1.000000  1.000000  1.000000  1.000000  1.000000  1.000000
                       1.000000  1.000000  1.000000  1.000000  1.000000  1.000000
                       1.000000  1.000000  1.000000  1.000000  1.000000  1.000000
                       1.000000  1.000000  1.000000  1.000000  1.000000  1.000000
                       1.000000  1.000000  1.000000  1.000000  1.000000  1.000000
                       1.000000  1.000000  1.000000  1.000000  1.000000  1.000000
                       1.000000  1.000000  1.000000  1.000000  1.000000  1.000000
                       1.000000  1.000000  1.000000  1.000000  1.000000  1.000000
                       1.000000  1.000000  0.000000  0.000000  0.000000  0.000000
                       0.000000  0.000000  0.000000  0.000000  0.000000  0.000000
                       0.000000  0.000000  0.000000  0.000000  0.000000
                       1.000000  1.000000  1.000000  1.000000  1.000000  1.000000
                       1.000000  1.000000  1.000000  1.000000  1.000000  1.000000
                       1.000000  1.000000  1.000000  1.000000  1.000000  1.000000
                       1.000000  1.000000  1.000000  1.000000  1.000000  1.000000
                       1.000000  1.000000  1.000000  1.000000  1.000000  1.000000
                       1.000000  1.000000  1.000000  1.000000  1.000000  1.000000
                       1.000000  1.000000  1.000000  1.000000  1.000000  1.000000
                       1.000000  1.000000  1.000000  1.000000  1.000000  1.000000
                       1.000000  1.000000  0.000000  0.000000  0.000000  0.000000
                       0.000000  0.000000  0.000000  0.000000  0.000000  0.000000
                       0.000000  0.000000  0.000000  0.000000  0.000000
                       1.000000  1.000000  1.000000  1.000000  1.000000  1.000000
                       1.000000  1.000000  1.000000  1.000000  1.000000  1.000000
                       1.000000  1.000000  1.000000  1.000000  1.000000  1.000000
                       1.000000  1.000000  1.000000  1.000000  1.000000  1.000000
                       1.000000  1.000000  1.000000  1.000000  1.000000  1.000000
                       1.000000  1.000000  1.000000  1.000000  1.000000  1.000000
                       1.000000  1.000000  1.000000  1.000000  1.000000  1.000000
                       1.000000  1.000000  1.000000  1.000000  1.000000  1.000000
                       1.000000  1.000000  0.000000  0.000000  0.000000  0.000000
                       0.000000  0.000000  0.000000  0.000000  0.000000  0.000000
                       0.000000  0.000000  0.000000  0.000000  0.000000
           occopt           3
           prtden           0
           prteig           0
          prtkden           1
            prtwf           0
            rprim      0.0000000000E+00  1.0137047334E+01  0.0000000000E+00
                       9.6126033568E+00  0.0000000000E+00  0.0000000000E+00
                       0.0000000000E+00 -5.7455806104E+00 -9.8776109362E+00
           shiftk      5.00000000E-01  5.00000000E-01  5.00000000E-01
          spgroup           1
           spinat      0.0000000000E+00  0.0000000000E+00  1.0000000000E+00
                       0.0000000000E+00  0.0000000000E+00  1.0000000000E+00
                       0.0000000000E+00  0.0000000000E+00  1.0000000000E+00
                       0.0000000000E+00  0.0000000000E+00  1.0000000000E+00
                       0.0000000000E+00  0.0000000000E+00  1.0000000000E+00
                       0.0000000000E+00  0.0000000000E+00  1.0000000000E+00
                       0.0000000000E+00  0.0000000000E+00  1.0000000000E+00
                       0.0000000000E+00  0.0000000000E+00  1.0000000000E+00
                       0.0000000000E+00  0.0000000000E+00  1.0000000000E+00
                       0.0000000000E+00  0.0000000000E+00  1.0000000000E+00
                       0.0000000000E+00  0.0000000000E+00  1.0000000000E+00
                       0.0000000000E+00  0.0000000000E+00  1.0000000000E+00
                       0.0000000000E+00  0.0000000000E+00  1.0000000000E+00
                       0.0000000000E+00  0.0000000000E+00  1.0000000000E+00
           toldfe      1.00000000E-06 Hartree
           tsmear      1.00000000E-03 Hartree
            typat      1  1  2  2  2  2  3  3  3  3  3  3  3  3
          usekden           1
              wtk        0.25000    0.25000    0.25000    0.25000
           xangst      2.5433853058E+00 -1.5202151546E+00 -2.6135032914E+00
                       0.0000000000E+00  0.0000000000E+00  0.0000000000E+00
                       3.1562750365E+00  1.1910186627E+00 -2.1474058874E+00
                       6.1288973068E-01  2.6530605942E+00 -4.6609740399E-01
                       1.9304955751E+00  1.1328454397E+00 -3.0796006954E+00
                       4.4738808809E+00 -3.2919649184E-01 -4.7609091788E+00
                       1.4881550895E+00  2.2345712582E+00 -3.5468271328E+00
                       4.0315403953E+00 -1.4309223104E+00 -4.2936827414E+00
                       3.5986155221E+00  8.9292844179E-02 -1.6801794500E+00
                       1.0552302163E+00  3.7547864128E+00 -9.3332384141E-01
                       3.6404796442E+00  2.3325325213E+00 -1.9145427441E+00
                       1.0970943384E+00  1.5115467357E+00 -6.9896054726E-01
                       1.4462909674E+00 -8.6684189171E-03 -3.3124638386E+00
                       3.9896762732E+00  8.1231736673E-01 -4.5280460355E+00
            xcart      4.8063016784E+00 -2.8727903052E+00 -4.9388054681E+00
                       0.0000000000E+00  0.0000000000E+00  0.0000000000E+00
                       5.9644954190E+00  2.2506990917E+00 -4.0580090233E+00
                       1.1581937406E+00  5.0135579370E+00 -8.8079644479E-01
                       3.6481079377E+00  2.1407676318E+00 -5.8196019129E+00
                       8.4544096161E+00 -6.2209121348E-01 -8.9968144914E+00
                       2.8122055624E+00  4.2227277024E+00 -6.7025319217E+00
                       7.6185072408E+00 -2.7040512841E+00 -8.1138844827E+00
                       6.8003977943E+00  1.6873902112E-01 -3.1750790146E+00
                       1.9940961159E+00  7.0955180076E+00 -1.7637264536E+00
                       6.8795095200E+00  4.4078476613E+00 -3.6179614561E+00
                       2.0732078416E+00  2.8564093675E+00 -1.3208440120E+00
                       2.7330938368E+00 -1.6380937759E-02 -6.2596494801E+00
                       7.5393955152E+00  1.5350573561E+00 -8.5567669242E+00
             xred     -5.0809124433E-18  5.0000000000E-01  5.0000000000E-01
                       0.0000000000E+00  0.0000000000E+00  0.0000000000E+00
                       4.5488100000E-01  6.2048700000E-01  4.1082900000E-01
                       5.4511900000E-01  1.2048700000E-01  8.9171000000E-02
                       5.4511900000E-01  3.7951300000E-01  5.8917100000E-01
                       4.5488100000E-01  8.7951300000E-01  9.1082900000E-01
                       8.0116400000E-01  2.9255400000E-01  6.7855800000E-01
                       1.9883600000E-01  7.9255400000E-01  8.2144200000E-01
                       1.9883600000E-01  7.0744600000E-01  3.2144200000E-01
                       8.0116400000E-01  2.0744600000E-01  1.7855800000E-01
                       6.4242900000E-01  7.1567600000E-01  3.6627900000E-01
                       3.5757100000E-01  2.1567600000E-01  1.3372100000E-01
                       3.5757100000E-01  2.8432400000E-01  6.3372100000E-01
                       6.4242900000E-01  7.8432400000E-01  8.6627900000E-01
            znucl       28.00000    6.00000    8.00000

================================================================================

 chkinp: Checking input parameters for consistency.

================================================================================
== DATASET  1 ==================================================================
-   mpi_nproc: 8, omp_nthreads: -1 (-1 if OMP is not activated)


--- !DatasetInfo
iteration_state: {dtset: 1, }
dimensions: {natom: 14, nkpt: 4, mband: 65, nsppol: 2, nspinor: 1, nspden: 2, mpw: 181721, }
cutoff_energies: {ecut: 250.0, pawecutdg:  -1.0, }
electrons: {nelect:   1.00000000E+02, charge:   0.00000000E+00, occopt:   3.00000000E+00, tsmear:   1.00000000E-03, }
meta: {optdriver: 0, ionmov: 0, optcell: 0, iscf: 7, paral_kgb: 0, }
...

 Real(R)+Recip(G) space primitive vectors, cartesian coordinates (Bohr,Bohr^-1):
 R(1)=  0.0000000 10.1370473  0.0000000  G(1)=  0.0000000  0.0986481 -0.0573813
 R(2)=  9.6126034  0.0000000  0.0000000  G(2)=  0.1040301  0.0000000  0.0000000
 R(3)=  0.0000000 -5.7455806 -9.8776109  G(3)=  0.0000000  0.0000000 -0.1012391
 Unit cell volume ucvol=  9.6250814E+02 bohr^3
 Angles (23,13,12)=  9.00000000E+01  1.20185586E+02  9.00000000E+01 degrees

 getcut: wavevector=  0.0000  0.0000  0.0000  ngfft= 150 144 180
         ecut(hartree)=    250.000   => boxcut(ratio)=   2.07900

--- Pseudopotential description ------------------------------------------------
- pspini: atom type   1  psp file is ../Ni.pot
- pspatm: opening atomic psp file    ../Ni.pot
- Ni    ONCVPSP-4.0.1  r_core=   2.18101   2.18101   2.24723
- 28.00000  18.00000    200312                znucl, zion, pspdat
    8   11    2    4       600   0.00000      pspcod,pspxc,lmax,lloc,mmax,r2well
    5.99000000000000    0.00000000000000    0.00000000000000   rchrg,fchrg,qchrg
     nproj     2     2     2
     extension_switch     1
  pspatm : epsatm=   38.47316822
         --- l  ekb(1:nproj) -->
             0   -3.440917   -0.196078
             1   -5.406223   -1.725842
             2   -7.274254   -2.503385
 pspatm: atomic psp has been read  and splines computed

- pspini: atom type   2  psp file is ../C.pot
- pspatm: opening atomic psp file    ../C.pot
- C     ONCVPSP-4.0.1  r_core=   1.42727   1.38521
-  6.00000   4.00000    200312                znucl, zion, pspdat
    8   11    1    4       600   0.00000      pspcod,pspxc,lmax,lloc,mmax,r2well
    5.99000000000000    0.00000000000000    0.00000000000000   rchrg,fchrg,qchrg
     nproj     2     2
     extension_switch     1
  pspatm : epsatm=    2.26998732
         --- l  ekb(1:nproj) -->
             0    7.571912    0.889574
             1   -3.169338   -0.856835
 pspatm: atomic psp has been read  and splines computed

- pspini: atom type   3  psp file is ../O.pot
- pspatm: opening atomic psp file    ../O.pot
- O     ONCVPSP-4.0.1  r_core=   1.28926   1.47061
-  8.00000   6.00000    200312                znucl, zion, pspdat
    8   11    1    4       600   0.00000      pspcod,pspxc,lmax,lloc,mmax,r2well
    5.99000000000000    0.00000000000000    0.00000000000000   rchrg,fchrg,qchrg
     nproj     2     2
     extension_switch     1
  pspatm : epsatm=    3.44365635
         --- l  ekb(1:nproj) -->
             0    9.802940    1.339963
             1   -3.661294   -1.085684
 pspatm: atomic psp has been read  and splines computed

   1.13575537E+04                                ecore*ucvol(ha*bohr**3)
--------------------------------------------------------------------------------

_setup2: Arith. and geom. avg. npw (full set) are  181720.000  181720.000

================================================================================

--- !BeginCycle
iteration_state: {dtset: 1, }
solver: {iscf: 7, nstep: 60, nline: 4, wfoptalg: 0, }
tolerances: {toldfe: 1.00E-06, }
...

     iter   Etot(hartree)     deltaE(h) residm    vres2    magn
 ETOT  1  -456.08527412606    -4.56E+02 3.76E-01 2.94E+05 1.927
 ETOT  2  -456.23732512449    -1.52E-01 1.19E-02 9.13E+05 4.000
 ETOT  3  -458.50271734539    -2.27E+00 1.52E-02 2.65E+05 2.867
 ETOT  4  -458.71565512582    -2.13E-01 9.29E-03 1.92E+05 2.553
 ETOT  5  -458.63570528367     7.99E-02 1.69E-03 2.17E+05 2.098
 ETOT  6  -458.81948308192    -1.84E-01 2.27E-03 1.43E+05 3.078
 ETOT  7  -458.94691456894    -1.27E-01 6.71E-04 1.14E+05 3.899
 ETOT  8  -458.94996987715    -3.06E-03 1.40E-03 1.09E+05 3.983
 ETOT  9  -459.00922849711    -5.93E-02 3.80E-04 8.27E+04 4.000
 ETOT 10  -459.13078276160    -1.22E-01 2.52E-03 2.61E+04 4.000
 ETOT 11  -459.13487653054    -4.09E-03 1.02E-03 1.97E+04 4.000
 ETOT 12  -459.13140740459     3.47E-03 6.77E-04 1.17E+04 4.000
 ETOT 13  -459.13131170812     9.57E-05 5.60E-04 1.64E+04 4.000
 ETOT 14  -459.13162618711    -3.14E-04 3.81E-04 1.39E+04 4.000
 ETOT 15  -459.13606907209    -4.44E-03 3.79E-04 3.15E+03 4.000
 ETOT 16  -459.13677837585    -7.09E-04 2.77E-04 6.13E+02 4.000
 ETOT 17  -459.13688827228    -1.10E-04 1.88E-04 1.95E+02 4.000
 ETOT 18  -459.13692217321    -3.39E-05 1.57E-04 3.04E+01 4.000
 ETOT 19  -459.13692672377    -4.55E-06 1.22E-04 1.31E+01 4.000
 ETOT 20  -459.13692869391    -1.97E-06 1.07E-04 3.69E+00 4.000
 ETOT 21  -459.13692957865    -8.85E-07 8.67E-05 1.42E+00 4.000
 ETOT 22  -459.13693005984    -4.81E-07 7.45E-05 9.25E-01 4.000

 At SCF step   22, etot is converged : 
  for the second time, diff in etot=  4.812E-07 < toldfe=  1.000E-06

Result for kinetic energy density :

--------------------------------------------------------------------------------
 Total kinetic energy density [Ha/Bohr^3]
      Maximum=    1.9599E+01  at reduced coord.    0.0000    0.0069    0.0111
      Minimum=    9.9184E-04  at reduced coord.    0.0000    0.0000    0.5000
   Integrated=    2.3695E+02
 Spin up density      [Ha/Bohr^3]
      Maximum=    1.0241E+01  at reduced coord.    0.9800    0.0208    0.9889
      Minimum=    4.9125E-04  at reduced coord.    0.0000    0.0000    0.5000
   Integrated=    1.2859E+02
 Spin down density    [Ha/Bohr^3]
      Maximum=    9.8530E+00  at reduced coord.    0.0000    0.0000    0.0000
      Minimum=    5.0060E-04  at reduced coord.    0.0000    0.0000    0.5000
   Integrated=    1.0836E+02
 Magnetization (spin up - spin down) [Ha/Bohr^3]
      Maximum=    3.0132E+00  at reduced coord.    0.9733    0.5208    0.5278
      Minimum=   -2.9305E-01  at reduced coord.    0.0000    0.0000    0.0000
   Integrated=    2.0236E+01
 Relative magnetization (=zeta, between -1 and 1)
      Maximum=    3.2168E-01  at reduced coord.    0.0867    0.6042    0.6278
      Minimum=   -2.0194E-02  at reduced coord.    0.8067    0.9028    0.6944
--------------------------------------------------------------------------------

 Cartesian components of stress tensor (hartree/bohr^3)
  sigma(1 1)=  1.30831403E-02  sigma(3 2)=  6.92792228E-06
  sigma(2 2)=  1.29961488E-02  sigma(3 1)= -5.35666076E-10
  sigma(3 3)=  1.30618086E-02  sigma(2 1)=  8.57139370E-09


--- !ResultsGS
iteration_state: {dtset: 1, }
comment   : Summary of ground state results
lattice_vectors:
- [  0.0000000,  10.1370473,   0.0000000, ]
- [  9.6126034,   0.0000000,   0.0000000, ]
- [  0.0000000,  -5.7455806,  -9.8776109, ]
lattice_lengths: [  10.13705,    9.61260,   11.42711, ]
lattice_angles: [ 90.000, 120.186,  90.000, ] # degrees, (23, 13, 12)
lattice_volume:   9.6250814E+02
convergence: {deltae: -4.812E-07, res2:  9.252E-01, residm:  7.454E-05, diffor: null, }
etotal    :  -4.59136930E+02
entropy   :   0.00000000E+00
fermie    :   1.26234779E-01
cartesian_stress_tensor: # hartree/bohr^3
- [  1.30831403E-02,   8.57139370E-09,  -5.35666076E-10, ]
- [  8.57139370E-09,   1.29961488E-02,   6.92792228E-06, ]
- [ -5.35666076E-10,   6.92792228E-06,   1.30618086E-02, ]
pressure_GPa:  -3.8386E+02
xred      :
- [ -5.0809E-18,   5.0000E-01,   5.0000E-01, Ni]
- [  0.0000E+00,   0.0000E+00,   0.0000E+00, Ni]
- [  4.5488E-01,   6.2049E-01,   4.1083E-01,  C]
- [  5.4512E-01,   1.2049E-01,   8.9171E-02,  C]
- [  5.4512E-01,   3.7951E-01,   5.8917E-01,  C]
- [  4.5488E-01,   8.7951E-01,   9.1083E-01,  C]
- [  8.0116E-01,   2.9255E-01,   6.7856E-01,  O]
- [  1.9884E-01,   7.9255E-01,   8.2144E-01,  O]
- [  1.9884E-01,   7.0745E-01,   3.2144E-01,  O]
- [  8.0116E-01,   2.0745E-01,   1.7856E-01,  O]
- [  6.4243E-01,   7.1568E-01,   3.6628E-01,  O]
- [  3.5757E-01,   2.1568E-01,   1.3372E-01,  O]
- [  3.5757E-01,   2.8432E-01,   6.3372E-01,  O]
- [  6.4243E-01,   7.8432E-01,   8.6628E-01,  O]
cartesian_forces: # hartree/bohr
- [  3.00190752E-06,  -5.18644116E-06,  -3.43678823E-06, ]
- [  1.51098906E-06,   7.08512382E-06,   2.11704393E-06, ]
- [  6.18596015E-03,   5.60726695E-03,   4.53018700E-03, ]
- [  6.19381981E-03,  -5.62842641E-03,  -4.53492387E-03, ]
- [ -6.18548212E-03,  -5.59851854E-03,  -4.53086906E-03, ]
- [ -6.19449678E-03,   5.61705855E-03,   4.53551624E-03, ]
- [  5.89683739E-03,  -9.99153057E-03,   4.87668772E-03, ]
- [  5.90315452E-03,   9.97501521E-03,  -4.87892824E-03, ]
- [ -5.89603023E-03,   9.98924568E-03,  -4.87652964E-03, ]
- [ -5.90148606E-03,  -9.97330847E-03,   4.88081790E-03, ]
- [ -8.68525029E-03,  -1.34121562E-02,  -3.90321879E-03, ]
- [ -8.72169046E-03,   1.34122749E-02,   3.91833112E-03, ]
- [  8.68166246E-03,   1.34121533E-02,   3.90230403E-03, ]
- [  8.71848870E-03,  -1.34109730E-02,  -3.91805468E-03, ]
force_length_stats: {min:   6.90812088E-06, max:   1.64715003E-02, mean:   1.10137390E-02, }
...

 Integrated electronic and magnetization densities in atomic spheres:
 ---------------------------------------------------------------------
 Radius=ratsph(iatom), smearing ratsm=  0.0000. Diff(up-dn)=approximate z local magnetic moment.
 Atom    Radius    up_density   dn_density  Total(up+dn)  Diff(up-dn)
    1   2.00000     8.886898     7.166653     16.053552     1.720245
    2   2.00000     8.886920     7.166727     16.053647     1.720192
    3   2.00000     2.766701     2.748444      5.515146     0.018257
    4   2.00000     2.766709     2.748449      5.515158     0.018260
    5   2.00000     2.766709     2.748436      5.515145     0.018273
    6   2.00000     2.766688     2.748471      5.515159     0.018217
    7   2.00000     3.322579     3.233825      6.556404     0.088753
    8   2.00000     3.322593     3.233838      6.556432     0.088755
    9   2.00000     3.322586     3.233830      6.556415     0.088756
   10   2.00000     3.322597     3.233853      6.556449     0.088744
   11   2.00000     3.327444     3.277886      6.605330     0.049558
   12   2.00000     3.327430     3.277841      6.605270     0.049589
   13   2.00000     3.327446     3.277897      6.605343     0.049548
   14   2.00000     3.327448     3.277838      6.605286     0.049610
 ---------------------------------------------------------------------
  Sum:             55.440747    51.373989    106.814736     4.066758
 Total magnetization (from the atomic spheres):             4.066758
 Total magnetization (exact up - dn):                       4.000000
================================================================================

 ----iterations are completed or convergence reached----

 Mean square residual over all n,k,spin=   29.836E-08; max=  74.544E-06
 reduced coordinates (array xred) for   14 atoms
      -0.000000000000      0.500000000000      0.500000000000
       0.000000000000      0.000000000000      0.000000000000
       0.454881000000      0.620487000000      0.410829000000
       0.545119000000      0.120487000000      0.089171000000
       0.545119000000      0.379513000000      0.589171000000
       0.454881000000      0.879513000000      0.910829000000
       0.801164000000      0.292554000000      0.678558000000
       0.198836000000      0.792554000000      0.821442000000
       0.198836000000      0.707446000000      0.321442000000
       0.801164000000      0.207446000000      0.178558000000
       0.642429000000      0.715676000000      0.366279000000
       0.357571000000      0.215676000000      0.133721000000
       0.357571000000      0.284324000000      0.633721000000
       0.642429000000      0.784324000000      0.866279000000
 rms dE/dt=  7.8749E-02; max dE/dt=  1.3596E-01; dE/dt below (all hartree)
    1       0.000053203636     -0.000028868849     -0.000063781676
    2      -0.000071193799     -0.000014537241      0.000061584183
    3      -0.056840502085     -0.059463194007      0.076964393653
    4       0.057056253394     -0.059538745832     -0.077132826585
    5       0.056753075843      0.059458573443     -0.076920936606
    6      -0.056939759993      0.059545227802      0.077073292203
    7       0.101285246725     -0.056683971567     -0.009237155590
    8      -0.101116572921     -0.056744695705      0.009120063786
    9      -0.101260827849      0.056676187257      0.009225518492
   10       0.101100528484      0.056728632048     -0.009091662832
   11       0.135960290663      0.083487853380     -0.115615136476
   12      -0.135960236958      0.083838138249      0.115765021555
   13      -0.135959004016     -0.083453390405      0.115606013359
   14       0.135948296983     -0.083807386407     -0.115754881707

 cartesian coordinates (angstrom) at end:
    1      2.54338530580572    -1.52021515457544    -2.61350329138676
    2      0.00000000000000     0.00000000000000     0.00000000000000
    3      3.15627503648694     1.19101866273694    -2.14740588739426
    4      0.61288973068123     2.65306059422621    -0.46609740399250
    5      1.93049557512449     1.13284543965077    -3.07960069537925
    6      4.47388088093020    -0.32919649183850    -4.76090917878101
    7      1.48815508950937     2.23457125820910    -3.54682713279363
    8      4.03154039531509    -1.43092231039683    -4.29368274136664
    9      3.59861552210206     0.08929284417861    -1.68017944997988
   10      1.05523021629634     3.75478641278454    -0.93332384140687
   11      3.64047964423562     2.33253252130485    -1.91454274413170
   12      1.09709433842991     1.51154673565830    -0.69896054725506
   13      1.44629096737581    -0.00866841891714    -3.31246383864181
   14      3.98967627318152     0.81231736672941    -4.52804603551846

 cartesian forces (hartree/bohr) at end:
    1      0.00000300190752    -0.00000518644116    -0.00000343678823
    2      0.00000151098906     0.00000708512382     0.00000211704393
    3      0.00618596015024     0.00560726695342     0.00453018700169
    4      0.00619381981344    -0.00562842641240    -0.00453492387070
    5     -0.00618548211542    -0.00559851853672    -0.00453086905729
    6     -0.00619449677625     0.00561705855295     0.00453551623826
    7      0.00589683738739    -0.00999153056627     0.00487668772479
    8      0.00590315452500     0.00997501521165    -0.00487892823593
    9     -0.00589603022785     0.00998924567962    -0.00487652963919
   10     -0.00590148606413    -0.00997330847109     0.00488081789770
   11     -0.00868525028895    -0.01341215619772    -0.00390321878731
   12     -0.00872169045574     0.01341227488784     0.00391833111984
   13      0.00868166245972     0.01341215326054     0.00390230402806
   14      0.00871848869596    -0.01341097304447    -0.00391805467563
 frms,max,avg= 7.0339573E-03 1.3412275E-02   1.321E-09 -6.199E-08  3.249E-08 h/b

 cartesian forces (eV/Angstrom) at end:
    1      0.00015436427842    -0.00026669750532    -0.00017672674157
    2      0.00007769817478     0.00036433168479     0.00010886276697
    3      0.31809483375012     0.28833723561441     0.23295156227375
    4      0.31849899384788    -0.28942529865124    -0.23319514185113
    5     -0.31807025221327    -0.28788737397819    -0.23298663497990
    6     -0.31853380467220     0.28884073986422     0.23322560261309
    7      0.30322754476864    -0.51378511616580     0.25076934435307
    8      0.30355238501785     0.51293586255673    -0.25088455605820
    9     -0.30318603895967     0.51366762257989    -0.25076121526493
   10     -0.30346658931754    -0.51284809843591     0.25098172636542
   11     -0.44661348919892    -0.68968074354295    -0.20071156313416
   12     -0.44848731775801     0.68968684683414     0.20148867045249
   13      0.44642899561747     0.68968059250734     0.20066452432602
   14      0.44832267666445    -0.68961990336210    -0.20147445512091
 frms,max,avg= 3.6170060E-01 6.8968685E-01   6.795E-08 -3.188E-06  1.671E-06 e/A
 length scales=  1.000000000000  1.000000000000  1.000000000000 bohr
              =  0.529177208590  0.529177208590  0.529177208590 angstroms
 Fermi (or HOMO) energy (hartree) =   0.12623   Average Vxc (hartree)=  -0.40673
 Magnetization (Bohr magneton)=  4.00000000E+00
 Total spin up =  5.20000000E+01   Total spin down =  4.80000000E+01
 Eigenvalues (hartree) for nkpt=   4  k points, SPIN UP:
 kpt#   1, nband= 65, wtk=  0.25000, kpt=  0.2500  0.2500  0.2500 (reduced coord)
  -3.86525   -3.86522   -2.39045   -2.39043   -2.38971   -2.38968   -2.38387   -2.38384
  -0.78955   -0.78088   -0.75464   -0.75350   -0.70484   -0.70109   -0.68176   -0.68054
  -0.35287   -0.33431   -0.23526   -0.22903   -0.21684   -0.21456   -0.18521   -0.17742
  -0.16608   -0.15703   -0.14326   -0.13208   -0.10437   -0.09114   -0.08281   -0.07807
  -0.06554   -0.06206   -0.05185   -0.03622   -0.03340   -0.02225   -0.01956   -0.01263
   0.00299    0.00636    0.00701    0.01354    0.01788    0.02578    0.03180    0.03722
   0.03906    0.04961    0.06350    0.07009    0.21242    0.22705    0.34225    0.35377
   0.36179    0.38990    0.43776    0.44066    0.46859    0.49457    0.51689    0.52826
   0.54523
      occupation numbers for kpt#   1
   1.00000    1.00000    1.00000    1.00000    1.00000    1.00000    1.00000    1.00000
   1.00000    1.00000    1.00000    1.00000    1.00000    1.00000    1.00000    1.00000
   1.00000    1.00000    1.00000    1.00000    1.00000    1.00000    1.00000    1.00000
   1.00000    1.00000    1.00000    1.00000    1.00000    1.00000    1.00000    1.00000
   1.00000    1.00000    1.00000    1.00000    1.00000    1.00000    1.00000    1.00000
   1.00000    1.00000    1.00000    1.00000    1.00000    1.00000    1.00000    1.00000
   1.00000    1.00000    1.00000    1.00000    0.00000    0.00000    0.00000    0.00000
   0.00000    0.00000    0.00000    0.00000    0.00000    0.00000    0.00000    0.00000
   0.00000
 prteigrs : prtvol=0 or 1, do not print more k-points.

 Eigenvalues (hartree) for nkpt=   4  k points, SPIN DOWN:
 kpt#   1, nband= 65, wtk=  0.25000, kpt=  0.2500  0.2500  0.2500 (reduced coord)
  -3.78455   -3.78453   -2.27532   -2.27529   -2.27382   -2.27380   -2.27150   -2.27147
  -0.78597   -0.77713   -0.75041   -0.74924   -0.70020   -0.69613   -0.67650   -0.67540
  -0.35034   -0.33162   -0.22868   -0.22144   -0.20979   -0.20783   -0.17981   -0.17035
  -0.16231   -0.14741   -0.13668   -0.12464   -0.10150   -0.07726   -0.05955   -0.05093
  -0.03701   -0.03308   -0.02654   -0.01893   -0.00354   -0.00205    0.00450    0.01127
   0.01681    0.02795    0.04506    0.05139    0.05466    0.05782    0.06005    0.06337
   0.17933    0.18760    0.19910    0.20692    0.21747    0.22993    0.34296    0.36101
   0.36768    0.40059    0.44283    0.44773    0.47433    0.50074    0.52075    0.53264
   0.55001
      occupation numbers for kpt#   1
   1.00000    1.00000    1.00000    1.00000    1.00000    1.00000    1.00000    1.00000
   1.00000    1.00000    1.00000    1.00000    1.00000    1.00000    1.00000    1.00000
   1.00000    1.00000    1.00000    1.00000    1.00000    1.00000    1.00000    1.00000
   1.00000    1.00000    1.00000    1.00000    1.00000    1.00000    1.00000    1.00000
   1.00000    1.00000    1.00000    1.00000    1.00000    1.00000    1.00000    1.00000
   1.00000    1.00000    1.00000    1.00000    1.00000    1.00000    1.00000    1.00000
   0.00000    0.00000    0.00000    0.00000    0.00000    0.00000    0.00000    0.00000
   0.00000    0.00000    0.00000    0.00000    0.00000    0.00000    0.00000    0.00000
   0.00000
 prteigrs : prtvol=0 or 1, do not print more k-points.


--- !EnergyTerms
iteration_state     : {dtset: 1, }
comment             : Components of total free energy in Hartree
kinetic             :  2.36946238565486E+02
hartree             :  1.68632301253826E+02
xc                  : -6.53968510303069E+01
Ewald energy        : -2.66069393551637E+02
psp_core            :  1.17999559022458E+01
local_psp           : -4.34736520837658E+02
non_local_psp       : -1.10312660361795E+02
internal            : -4.59136930059839E+02
'-kT*entropy'       :  4.26290451696855E-15
total_energy        : -4.59136930059839E+02
total_energy_eV     : -1.24937512481603E+04
band_energy         : -6.02481416454953E+01
...


 Cartesian components of stress tensor (hartree/bohr^3)
  sigma(1 1)=  1.30831403E-02  sigma(3 2)=  6.92792228E-06
  sigma(2 2)=  1.29961488E-02  sigma(3 1)= -5.35666076E-10
  sigma(3 3)=  1.30618086E-02  sigma(2 1)=  8.57139370E-09

-Cartesian components of stress tensor (GPa)         [Pressure= -3.8386E+02 GPa]
- sigma(1 1)=  3.84919211E+02  sigma(3 2)=  2.03826476E-01
- sigma(2 2)=  3.82359834E+02  sigma(3 1)= -1.57598374E-05
- sigma(3 3)=  3.84291612E+02  sigma(2 1)=  2.52179067E-04

== END DATASET(S) ==============================================================
================================================================================
  
 -outvars: echo values of variables after computation  --------
            acell      1.0000000000E+00  1.0000000000E+00  1.0000000000E+00 Bohr
              amu      5.86900000E+01  1.20110000E+01  1.59994000E+01
        autoparal           1
           diemac      1.00000000E+00
           diemix      4.00000000E-01
             ecut      2.50000000E+02 Hartree
           ecutsm      5.00000000E-01 Hartree
           etotal     -4.5913693006E+02
            fcart      3.0019075245E-06 -5.1864411648E-06 -3.4367882305E-06
                       1.5109890571E-06  7.0851238199E-06  2.1170439342E-06
                       6.1859601502E-03  5.6072669534E-03  4.5301870017E-03
                       6.1938198134E-03 -5.6284264124E-03 -4.5349238707E-03
                      -6.1854821154E-03 -5.5985185367E-03 -4.5308690573E-03
                      -6.1944967762E-03  5.6170585529E-03  4.5355162383E-03
                       5.8968373874E-03 -9.9915305663E-03  4.8766877248E-03
                       5.9031545250E-03  9.9750152116E-03 -4.8789282359E-03
                      -5.8960302278E-03  9.9892456796E-03 -4.8765296392E-03
                      -5.9014860641E-03 -9.9733084711E-03  4.8808178977E-03
                      -8.6852502890E-03 -1.3412156198E-02 -3.9032187873E-03
                      -8.7216904557E-03  1.3412274888E-02  3.9183311198E-03
                       8.6816624597E-03  1.3412153261E-02  3.9023040281E-03
                       8.7184886960E-03 -1.3410973044E-02 -3.9180546756E-03
-          fftalg         312
              ixc     -263267
              kpt      2.50000000E-01  2.50000000E-01  2.50000000E-01
                      -2.50000000E-01  2.50000000E-01  2.50000000E-01
                       2.50000000E-01 -2.50000000E-01  2.50000000E-01
                      -2.50000000E-01 -2.50000000E-01  2.50000000E-01
         kptrlatt        2    0    0      0    2    0      0    0    2
          kptrlen      1.92252067E+01
P           mkmem           1
            natom          14
            nband          65
            ngfft         150     144     180
             nkpt           4
-        np_spkpt           8
           nspden           2
           nsppol           2
            nstep          60
             nsym           1
           ntypat           3
              occ      1.000000  1.000000  1.000000  1.000000  1.000000  1.000000
                       1.000000  1.000000  1.000000  1.000000  1.000000  1.000000
                       1.000000  1.000000  1.000000  1.000000  1.000000  1.000000
                       1.000000  1.000000  1.000000  1.000000  1.000000  1.000000
                       1.000000  1.000000  1.000000  1.000000  1.000000  1.000000
                       1.000000  1.000000  1.000000  1.000000  1.000000  1.000000
                       1.000000  1.000000  1.000000  1.000000  1.000000  1.000000
                       1.000000  1.000000  1.000000  1.000000  1.000000  1.000000
                       1.000000  1.000000  1.000000  1.000000  0.000000  0.000000
                       0.000000  0.000000  0.000000  0.000000  0.000000  0.000000
                       0.000000  0.000000  0.000000  0.000000  0.000000
                       1.000000  1.000000  1.000000  1.000000  1.000000  1.000000
                       1.000000  1.000000  1.000000  1.000000  1.000000  1.000000
                       1.000000  1.000000  1.000000  1.000000  1.000000  1.000000
                       1.000000  1.000000  1.000000  1.000000  1.000000  1.000000
                       1.000000  1.000000  1.000000  1.000000  1.000000  1.000000
                       1.000000  1.000000  1.000000  1.000000  1.000000  1.000000
                       1.000000  1.000000  1.000000  1.000000  1.000000  1.000000
                       1.000000  1.000000  1.000000  1.000000  1.000000  1.000000
                       1.000000  1.000000  1.000000  1.000000  0.000000  0.000000
                       0.000000  0.000000  0.000000  0.000000  0.000000  0.000000
                       0.000000  0.000000  0.000000  0.000000  0.000000
                       1.000000  1.000000  1.000000  1.000000  1.000000  1.000000
                       1.000000  1.000000  1.000000  1.000000  1.000000  1.000000
                       1.000000  1.000000  1.000000  1.000000  1.000000  1.000000
                       1.000000  1.000000  1.000000  1.000000  1.000000  1.000000
                       1.000000  1.000000  1.000000  1.000000  1.000000  1.000000
                       1.000000  1.000000  1.000000  1.000000  1.000000  1.000000
                       1.000000  1.000000  1.000000  1.000000  1.000000  1.000000
                       1.000000  1.000000  1.000000  1.000000  1.000000  1.000000
                       1.000000  1.000000  1.000000  1.000000  0.000000  0.000000
                       0.000000  0.000000  0.000000  0.000000  0.000000  0.000000
                       0.000000  0.000000  0.000000  0.000000  0.000000
                       1.000000  1.000000  1.000000  1.000000  1.000000  1.000000
                       1.000000  1.000000  1.000000  1.000000  1.000000  1.000000
                       1.000000  1.000000  1.000000  1.000000  1.000000  1.000000
                       1.000000  1.000000  1.000000  1.000000  1.000000  1.000000
                       1.000000  1.000000  1.000000  1.000000  1.000000  1.000000
                       1.000000  1.000000  1.000000  1.000000  1.000000  1.000000
                       1.000000  1.000000  1.000000  1.000000  1.000000  1.000000
                       1.000000  1.000000  1.000000  1.000000  1.000000  1.000000
                       1.000000  1.000000  1.000000  1.000000  0.000000  0.000000
                       0.000000  0.000000  0.000000  0.000000  0.000000  0.000000
                       0.000000  0.000000  0.000000  0.000000  0.000000
                       1.000000  1.000000  1.000000  1.000000  1.000000  1.000000
                       1.000000  1.000000  1.000000  1.000000  1.000000  1.000000
                       1.000000  1.000000  1.000000  1.000000  1.000000  1.000000
                       1.000000  1.000000  1.000000  1.000000  1.000000  1.000000
                       1.000000  1.000000  1.000000  1.000000  1.000000  1.000000
                       1.000000  1.000000  1.000000  1.000000  1.000000  1.000000
                       1.000000  1.000000  1.000000  1.000000  1.000000  1.000000
                       1.000000  1.000000  1.000000  1.000000  1.000000  1.000000
                       0.000000  0.000000  0.000000  0.000000  0.000000  0.000000
                       0.000000  0.000000  0.000000  0.000000  0.000000  0.000000
                       0.000000  0.000000  0.000000  0.000000  0.000000
                       1.000000  1.000000  1.000000  1.000000  1.000000  1.000000
                       1.000000  1.000000  1.000000  1.000000  1.000000  1.000000
                       1.000000  1.000000  1.000000  1.000000  1.000000  1.000000
                       1.000000  1.000000  1.000000  1.000000  1.000000  1.000000
                       1.000000  1.000000  1.000000  1.000000  1.000000  1.000000
                       1.000000  1.000000  1.000000  1.000000  1.000000  1.000000
                       1.000000  1.000000  1.000000  1.000000  1.000000  1.000000
                       1.000000  1.000000  1.000000  1.000000  1.000000  1.000000
                       0.000000  0.000000  0.000000  0.000000  0.000000  0.000000
                       0.000000  0.000000  0.000000  0.000000  0.000000  0.000000
                       0.000000  0.000000  0.000000  0.000000  0.000000
                       1.000000  1.000000  1.000000  1.000000  1.000000  1.000000
                       1.000000  1.000000  1.000000  1.000000  1.000000  1.000000
                       1.000000  1.000000  1.000000  1.000000  1.000000  1.000000
                       1.000000  1.000000  1.000000  1.000000  1.000000  1.000000
                       1.000000  1.000000  1.000000  1.000000  1.000000  1.000000
                       1.000000  1.000000  1.000000  1.000000  1.000000  1.000000
                       1.000000  1.000000  1.000000  1.000000  1.000000  1.000000
                       1.000000  1.000000  1.000000  1.000000  1.000000  1.000000
                       0.000000  0.000000  0.000000  0.000000  0.000000  0.000000
                       0.000000  0.000000  0.000000  0.000000  0.000000  0.000000
                       0.000000  0.000000  0.000000  0.000000  0.000000
                       1.000000  1.000000  1.000000  1.000000  1.000000  1.000000
                       1.000000  1.000000  1.000000  1.000000  1.000000  1.000000
                       1.000000  1.000000  1.000000  1.000000  1.000000  1.000000
                       1.000000  1.000000  1.000000  1.000000  1.000000  1.000000
                       1.000000  1.000000  1.000000  1.000000  1.000000  1.000000
                       1.000000  1.000000  1.000000  1.000000  1.000000  1.000000
                       1.000000  1.000000  1.000000  1.000000  1.000000  1.000000
                       1.000000  1.000000  1.000000  1.000000  1.000000  1.000000
                       0.000000  0.000000  0.000000  0.000000  0.000000  0.000000
                       0.000000  0.000000  0.000000  0.000000  0.000000  0.000000
                       0.000000  0.000000  0.000000  0.000000  0.000000
           occopt           3
           prtden           0
           prteig           0
          prtkden           1
            prtwf           0
            rprim      0.0000000000E+00  1.0137047334E+01  0.0000000000E+00
                       9.6126033568E+00  0.0000000000E+00  0.0000000000E+00
                       0.0000000000E+00 -5.7455806104E+00 -9.8776109362E+00
           shiftk      5.00000000E-01  5.00000000E-01  5.00000000E-01
          spgroup           1
           spinat      0.0000000000E+00  0.0000000000E+00  1.0000000000E+00
                       0.0000000000E+00  0.0000000000E+00  1.0000000000E+00
                       0.0000000000E+00  0.0000000000E+00  1.0000000000E+00
                       0.0000000000E+00  0.0000000000E+00  1.0000000000E+00
                       0.0000000000E+00  0.0000000000E+00  1.0000000000E+00
                       0.0000000000E+00  0.0000000000E+00  1.0000000000E+00
                       0.0000000000E+00  0.0000000000E+00  1.0000000000E+00
                       0.0000000000E+00  0.0000000000E+00  1.0000000000E+00
                       0.0000000000E+00  0.0000000000E+00  1.0000000000E+00
                       0.0000000000E+00  0.0000000000E+00  1.0000000000E+00
                       0.0000000000E+00  0.0000000000E+00  1.0000000000E+00
                       0.0000000000E+00  0.0000000000E+00  1.0000000000E+00
                       0.0000000000E+00  0.0000000000E+00  1.0000000000E+00
                       0.0000000000E+00  0.0000000000E+00  1.0000000000E+00
           strten      1.3083140252E-02  1.2996148806E-02  1.3061808589E-02
                       6.9279222798E-06 -5.3566607567E-10  8.5713936967E-09
           toldfe      1.00000000E-06 Hartree
           tsmear      1.00000000E-03 Hartree
            typat      1  1  2  2  2  2  3  3  3  3  3  3  3  3
          usekden           1
              wtk        0.25000    0.25000    0.25000    0.25000
           xangst      2.5433853058E+00 -1.5202151546E+00 -2.6135032914E+00
                       0.0000000000E+00  0.0000000000E+00  0.0000000000E+00
                       3.1562750365E+00  1.1910186627E+00 -2.1474058874E+00
                       6.1288973068E-01  2.6530605942E+00 -4.6609740399E-01
                       1.9304955751E+00  1.1328454397E+00 -3.0796006954E+00
                       4.4738808809E+00 -3.2919649184E-01 -4.7609091788E+00
                       1.4881550895E+00  2.2345712582E+00 -3.5468271328E+00
                       4.0315403953E+00 -1.4309223104E+00 -4.2936827414E+00
                       3.5986155221E+00  8.9292844179E-02 -1.6801794500E+00
                       1.0552302163E+00  3.7547864128E+00 -9.3332384141E-01
                       3.6404796442E+00  2.3325325213E+00 -1.9145427441E+00
                       1.0970943384E+00  1.5115467357E+00 -6.9896054726E-01
                       1.4462909674E+00 -8.6684189171E-03 -3.3124638386E+00
                       3.9896762732E+00  8.1231736673E-01 -4.5280460355E+00
            xcart      4.8063016784E+00 -2.8727903052E+00 -4.9388054681E+00
                       0.0000000000E+00  0.0000000000E+00  0.0000000000E+00
                       5.9644954190E+00  2.2506990917E+00 -4.0580090233E+00
                       1.1581937406E+00  5.0135579370E+00 -8.8079644479E-01
                       3.6481079377E+00  2.1407676318E+00 -5.8196019129E+00
                       8.4544096161E+00 -6.2209121348E-01 -8.9968144914E+00
                       2.8122055624E+00  4.2227277024E+00 -6.7025319217E+00
                       7.6185072408E+00 -2.7040512841E+00 -8.1138844827E+00
                       6.8003977943E+00  1.6873902112E-01 -3.1750790146E+00
                       1.9940961159E+00  7.0955180076E+00 -1.7637264536E+00
                       6.8795095200E+00  4.4078476613E+00 -3.6179614561E+00
                       2.0732078416E+00  2.8564093675E+00 -1.3208440120E+00
                       2.7330938368E+00 -1.6380937759E-02 -6.2596494801E+00
                       7.5393955152E+00  1.5350573561E+00 -8.5567669242E+00
             xred     -5.0809124433E-18  5.0000000000E-01  5.0000000000E-01
                       0.0000000000E+00  0.0000000000E+00  0.0000000000E+00
                       4.5488100000E-01  6.2048700000E-01  4.1082900000E-01
                       5.4511900000E-01  1.2048700000E-01  8.9171000000E-02
                       5.4511900000E-01  3.7951300000E-01  5.8917100000E-01
                       4.5488100000E-01  8.7951300000E-01  9.1082900000E-01
                       8.0116400000E-01  2.9255400000E-01  6.7855800000E-01
                       1.9883600000E-01  7.9255400000E-01  8.2144200000E-01
                       1.9883600000E-01  7.0744600000E-01  3.2144200000E-01
                       8.0116400000E-01  2.0744600000E-01  1.7855800000E-01
                       6.4242900000E-01  7.1567600000E-01  3.6627900000E-01
                       3.5757100000E-01  2.1567600000E-01  1.3372100000E-01
                       3.5757100000E-01  2.8432400000E-01  6.3372100000E-01
                       6.4242900000E-01  7.8432400000E-01  8.6627900000E-01
            znucl       28.00000    6.00000    8.00000

================================================================================


- Timing analysis has been suppressed with timopt=0



================================================================================

 Suggested references for the acknowledgment of ABINIT usage.

 The users of ABINIT have little formal obligations with respect to the ABINIT group
 (those specified in the GNU General Public License, http://www.gnu.org/copyleft/gpl.txt).
 However, it is common practice in the scientific literature,
 to acknowledge the efforts of people that have made the research possible.
 In this spirit, please find below suggested citations of work written by ABINIT developers,
 corresponding to implementations inside of ABINIT that you have used in the present run.
 Note also that it will be of great value to readers of publications presenting these results,
 to read papers enabling them to understand the theoretical formalism and details
 of the ABINIT implementation.
 For information on why they are suggested, see also https://docs.abinit.org/theory/acknowledgments.
-
- [1] Libxc: A library of exchange and correlation functionals for density functional theory.
- M.A.L. Marques, M.J.T. Oliveira, T. Burnus, Computer Physics Communications 183, 2227 (2012).
- Comment: to be cited when LibXC is used (negative value of ixc)
- Strong suggestion to cite this paper.
- DOI and bibtex: see https://docs.abinit.org/theory/bibliography/#marques2012
-
- [2] The Abinit project: Impact, environment and recent developments.
- Computer Phys. Comm. 248, 107042 (2020).
- X.Gonze, B. Amadon, G. Antonius, F.Arnardi, L.Baguet, J.-M.Beuken,
- J.Bieder, F.Bottin, J.Bouchet, E.Bousquet, N.Brouwer, F.Bruneval,
- G.Brunin, T.Cavignac, J.-B. Charraud, Wei Chen, M.Cote, S.Cottenier,
- J.Denier, G.Geneste, Ph.Ghosez, M.Giantomassi, Y.Gillet, O.Gingras,
- D.R.Hamann, G.Hautier, Xu He, N.Helbig, N.Holzwarth, Y.Jia, F.Jollet,
- W.Lafargue-Dit-Hauret, K.Lejaeghere, M.A.L.Marques, A.Martin, C.Martins,
- H.P.C. Miranda, F.Naccarato, K. Persson, G.Petretto, V.Planes, Y.Pouillon,
- S.Prokhorenko, F.Ricci, G.-M.Rignanese, A.H.Romero, M.M.Schmitt, M.Torrent,
- M.J.van Setten, B.Van Troeye, M.J.Verstraete, G.Zerah and J.W.Zwanzig
- Comment: the fifth generic paper describing the ABINIT project.
- Note that a version of this paper, that is not formatted for Computer Phys. Comm. 
- is available at https://www.abinit.org/sites/default/files/ABINIT20.pdf .
- The licence allows the authors to put it on the Web.
- DOI and bibtex: see https://docs.abinit.org/theory/bibliography/#gonze2020
-
- [3] Optimized norm-conserving Vanderbilt pseudopotentials.
- D.R. Hamann, Phys. Rev. B 88, 085117 (2013).
- Comment: Some pseudopotential generated using the ONCVPSP code were used.
- DOI and bibtex: see https://docs.abinit.org/theory/bibliography/#hamann2013
-
- [4] ABINIT: Overview, and focus on selected capabilities
- J. Chem. Phys. 152, 124102 (2020).
- A. Romero, D.C. Allan, B. Amadon, G. Antonius, T. Applencourt, L.Baguet,
- J.Bieder, F.Bottin, J.Bouchet, E.Bousquet, F.Bruneval,
- G.Brunin, D.Caliste, M.Cote,
- J.Denier, C. Dreyer, Ph.Ghosez, M.Giantomassi, Y.Gillet, O.Gingras,
- D.R.Hamann, G.Hautier, F.Jollet, G. Jomard,
- A.Martin, 
- H.P.C. Miranda, F.Naccarato, G.Petretto, N.A. Pike, V.Planes,
- S.Prokhorenko, T. Rangel, F.Ricci, G.-M.Rignanese, M.Royo, M.Stengel, M.Torrent,
- M.J.van Setten, B.Van Troeye, M.J.Verstraete, J.Wiktor, J.W.Zwanziger, and X.Gonze.
- Comment: a global overview of ABINIT, with focus on selected capabilities .
- Note that a version of this paper, that is not formatted for J. Chem. Phys 
- is available at https://www.abinit.org/sites/default/files/ABINIT20_JPC.pdf .
- The licence allows the authors to put it on the Web.
- DOI and bibtex: see https://docs.abinit.org/theory/bibliography/#romero2020
-
- [5] Recent developments in the ABINIT software package.
- Computer Phys. Comm. 205, 106 (2016).
- X.Gonze, F.Jollet, F.Abreu Araujo, D.Adams, B.Amadon, T.Applencourt,
- C.Audouze, J.-M.Beuken, J.Bieder, A.Bokhanchuk, E.Bousquet, F.Bruneval
- D.Caliste, M.Cote, F.Dahm, F.Da Pieve, M.Delaveau, M.Di Gennaro,
- B.Dorado, C.Espejo, G.Geneste, L.Genovese, A.Gerossier, M.Giantomassi,
- Y.Gillet, D.R.Hamann, L.He, G.Jomard, J.Laflamme Janssen, S.Le Roux,
- A.Levitt, A.Lherbier, F.Liu, I.Lukacevic, A.Martin, C.Martins,
- M.J.T.Oliveira, S.Ponce, Y.Pouillon, T.Rangel, G.-M.Rignanese,
- A.H.Romero, B.Rousseau, O.Rubel, A.A.Shukri, M.Stankovski, M.Torrent,
- M.J.Van Setten, B.Van Troeye, M.J.Verstraete, D.Waroquier, J.Wiktor,
- B.Xu, A.Zhou, J.W.Zwanziger.
- Comment: the fourth generic paper describing the ABINIT project.
- Note that a version of this paper, that is not formatted for Computer Phys. Comm. 
- is available at https://www.abinit.org/sites/default/files/ABINIT16.pdf .
- The licence allows the authors to put it on the Web.
- DOI and bibtex: see https://docs.abinit.org/theory/bibliography/#gonze2016
-
- Proc.   0 individual time (sec): cpu=       5832.3  wall=       5852.1

================================================================================

 Calculation completed.
.Delivered   0 WARNINGs and   0 COMMENTs to log file.
+Overall time at end (sec) : cpu=      46696.3  wall=      46818.7
