
.Version 9.6.2 of ABINIT 
.(MPI version, prepared for a x86_64_linux_gnu10.3 computer) 

.Copyright (C) 1998-2021 ABINIT group . 
 ABINIT comes with ABSOLUTELY NO WARRANTY.
 It is free software, and you are welcome to redistribute it
 under certain conditions (GNU General Public License,
 see ~abinit/COPYING or http://www.gnu.org/copyleft/gpl.txt).

 ABINIT is a project of the Universite Catholique de Louvain,
 Corning Inc. and other collaborators, see ~abinit/doc/developers/contributors.txt .
 Please read https://docs.abinit.org/theory/acknowledgments for suggested
 acknowledgments of the ABINIT effort.
 For more information, see https://www.abinit.org .

.Starting date : Thu  8 Dec 2022.
- ( at 00h22 )
  
- input  file    -> NiC2O4.in
- output file    -> NiC2O4.out
- root for input  files -> abi
- root for output files -> abo


 Symmetries : space group P1 (#  1); Bravais aP (primitive triclinic)
================================================================================
 Values of the parameters that define the memory need of the present run
     intxc =       0    ionmov =       0      iscf =       7    lmnmax =       6
     lnmax =       6     mgfft =     144  mpssoang =       3    mqgrid =    5966
     natom =      14  nloc_mem =       1    nspden =       2   nspinor =       1
    nsppol =       2      nsym =       1    n1xccc =       0    ntypat =       3
    occopt =       3   xclevel =       2
-    mband =          65        mffmem =           1         mkmem =           1
       mpw =      111027          nfft =     2160000          nkpt =           4
================================================================================
P This job should need less than                    1279.652 Mbytes of memory.
  Rough estimation (10% accuracy) of disk space for files :
_ WF disk file :    880.954 Mbytes ; DEN or POT disk file :     32.961 Mbytes.
================================================================================

--------------------------------------------------------------------------------
------------- Echo of variables that govern the present computation ------------
--------------------------------------------------------------------------------
-
- outvars: echo of selected default values                                      
-   iomode0 =  0 , fftalg0 =312 , wfoptalg0 =  0
-
- outvars: echo of global parameters not present in the input file              
-  max_nthreads =    0
-
 -outvars: echo values of preprocessed input variables --------
            acell      1.0000000000E+00  1.0000000000E+00  1.0000000000E+00 Bohr
              amu      5.86900000E+01  1.20110000E+01  1.59994000E+01
        autoparal           1
           diemac      1.00000000E+00
           diemix      4.00000000E-01
             ecut      1.80000000E+02 Hartree
           ecutsm      5.00000000E-01 Hartree
-          fftalg         312
              ixc          11
              kpt      2.50000000E-01  2.50000000E-01  2.50000000E-01
                      -2.50000000E-01  2.50000000E-01  2.50000000E-01
                       2.50000000E-01 -2.50000000E-01  2.50000000E-01
                      -2.50000000E-01 -2.50000000E-01  2.50000000E-01
         kptrlatt        2    0    0      0    2    0      0    0    2
          kptrlen      1.92252067E+01
P           mkmem           1
            natom          14
            nband          65
            ngfft         125     120     144
             nkpt           4
-        np_spkpt           8
           nspden           2
           nsppol           2
            nstep          60
             nsym           1
           ntypat           3
              occ      1.000000  1.000000  1.000000  1.000000  1.000000  1.000000
                       1.000000  1.000000  1.000000  1.000000  1.000000  1.000000
                       1.000000  1.000000  1.000000  1.000000  1.000000  1.000000
                       1.000000  1.000000  1.000000  1.000000  1.000000  1.000000
                       1.000000  1.000000  1.000000  1.000000  1.000000  1.000000
                       1.000000  1.000000  1.000000  1.000000  1.000000  1.000000
                       1.000000  1.000000  1.000000  1.000000  1.000000  1.000000
                       1.000000  1.000000  1.000000  1.000000  1.000000  1.000000
                       1.000000  1.000000  0.000000  0.000000  0.000000  0.000000
                       0.000000  0.000000  0.000000  0.000000  0.000000  0.000000
                       0.000000  0.000000  0.000000  0.000000  0.000000
                       1.000000  1.000000  1.000000  1.000000  1.000000  1.000000
                       1.000000  1.000000  1.000000  1.000000  1.000000  1.000000
                       1.000000  1.000000  1.000000  1.000000  1.000000  1.000000
                       1.000000  1.000000  1.000000  1.000000  1.000000  1.000000
                       1.000000  1.000000  1.000000  1.000000  1.000000  1.000000
                       1.000000  1.000000  1.000000  1.000000  1.000000  1.000000
                       1.000000  1.000000  1.000000  1.000000  1.000000  1.000000
                       1.000000  1.000000  1.000000  1.000000  1.000000  1.000000
                       1.000000  1.000000  0.000000  0.000000  0.000000  0.000000
                       0.000000  0.000000  0.000000  0.000000  0.000000  0.000000
                       0.000000  0.000000  0.000000  0.000000  0.000000
                       1.000000  1.000000  1.000000  1.000000  1.000000  1.000000
                       1.000000  1.000000  1.000000  1.000000  1.000000  1.000000
                       1.000000  1.000000  1.000000  1.000000  1.000000  1.000000
                       1.000000  1.000000  1.000000  1.000000  1.000000  1.000000
                       1.000000  1.000000  1.000000  1.000000  1.000000  1.000000
                       1.000000  1.000000  1.000000  1.000000  1.000000  1.000000
                       1.000000  1.000000  1.000000  1.000000  1.000000  1.000000
                       1.000000  1.000000  1.000000  1.000000  1.000000  1.000000
                       1.000000  1.000000  0.000000  0.000000  0.000000  0.000000
                       0.000000  0.000000  0.000000  0.000000  0.000000  0.000000
                       0.000000  0.000000  0.000000  0.000000  0.000000
                       1.000000  1.000000  1.000000  1.000000  1.000000  1.000000
                       1.000000  1.000000  1.000000  1.000000  1.000000  1.000000
                       1.000000  1.000000  1.000000  1.000000  1.000000  1.000000
                       1.000000  1.000000  1.000000  1.000000  1.000000  1.000000
                       1.000000  1.000000  1.000000  1.000000  1.000000  1.000000
                       1.000000  1.000000  1.000000  1.000000  1.000000  1.000000
                       1.000000  1.000000  1.000000  1.000000  1.000000  1.000000
                       1.000000  1.000000  1.000000  1.000000  1.000000  1.000000
                       1.000000  1.000000  0.000000  0.000000  0.000000  0.000000
                       0.000000  0.000000  0.000000  0.000000  0.000000  0.000000
                       0.000000  0.000000  0.000000  0.000000  0.000000
                       1.000000  1.000000  1.000000  1.000000  1.000000  1.000000
                       1.000000  1.000000  1.000000  1.000000  1.000000  1.000000
                       1.000000  1.000000  1.000000  1.000000  1.000000  1.000000
                       1.000000  1.000000  1.000000  1.000000  1.000000  1.000000
                       1.000000  1.000000  1.000000  1.000000  1.000000  1.000000
                       1.000000  1.000000  1.000000  1.000000  1.000000  1.000000
                       1.000000  1.000000  1.000000  1.000000  1.000000  1.000000
                       1.000000  1.000000  1.000000  1.000000  1.000000  1.000000
                       1.000000  1.000000  0.000000  0.000000  0.000000  0.000000
                       0.000000  0.000000  0.000000  0.000000  0.000000  0.000000
                       0.000000  0.000000  0.000000  0.000000  0.000000
                       1.000000  1.000000  1.000000  1.000000  1.000000  1.000000
                       1.000000  1.000000  1.000000  1.000000  1.000000  1.000000
                       1.000000  1.000000  1.000000  1.000000  1.000000  1.000000
                       1.000000  1.000000  1.000000  1.000000  1.000000  1.000000
                       1.000000  1.000000  1.000000  1.000000  1.000000  1.000000
                       1.000000  1.000000  1.000000  1.000000  1.000000  1.000000
                       1.000000  1.000000  1.000000  1.000000  1.000000  1.000000
                       1.000000  1.000000  1.000000  1.000000  1.000000  1.000000
                       1.000000  1.000000  0.000000  0.000000  0.000000  0.000000
                       0.000000  0.000000  0.000000  0.000000  0.000000  0.000000
                       0.000000  0.000000  0.000000  0.000000  0.000000
                       1.000000  1.000000  1.000000  1.000000  1.000000  1.000000
                       1.000000  1.000000  1.000000  1.000000  1.000000  1.000000
                       1.000000  1.000000  1.000000  1.000000  1.000000  1.000000
                       1.000000  1.000000  1.000000  1.000000  1.000000  1.000000
                       1.000000  1.000000  1.000000  1.000000  1.000000  1.000000
                       1.000000  1.000000  1.000000  1.000000  1.000000  1.000000
                       1.000000  1.000000  1.000000  1.000000  1.000000  1.000000
                       1.000000  1.000000  1.000000  1.000000  1.000000  1.000000
                       1.000000  1.000000  0.000000  0.000000  0.000000  0.000000
                       0.000000  0.000000  0.000000  0.000000  0.000000  0.000000
                       0.000000  0.000000  0.000000  0.000000  0.000000
                       1.000000  1.000000  1.000000  1.000000  1.000000  1.000000
                       1.000000  1.000000  1.000000  1.000000  1.000000  1.000000
                       1.000000  1.000000  1.000000  1.000000  1.000000  1.000000
                       1.000000  1.000000  1.000000  1.000000  1.000000  1.000000
                       1.000000  1.000000  1.000000  1.000000  1.000000  1.000000
                       1.000000  1.000000  1.000000  1.000000  1.000000  1.000000
                       1.000000  1.000000  1.000000  1.000000  1.000000  1.000000
                       1.000000  1.000000  1.000000  1.000000  1.000000  1.000000
                       1.000000  1.000000  0.000000  0.000000  0.000000  0.000000
                       0.000000  0.000000  0.000000  0.000000  0.000000  0.000000
                       0.000000  0.000000  0.000000  0.000000  0.000000
           occopt           3
           prtden           0
           prteig           0
          prtkden           1
            prtwf           0
            rprim      0.0000000000E+00  1.0137047334E+01  0.0000000000E+00
                       9.6126033568E+00  0.0000000000E+00  0.0000000000E+00
                       0.0000000000E+00 -5.7455806104E+00 -9.8776109362E+00
           shiftk      5.00000000E-01  5.00000000E-01  5.00000000E-01
          spgroup           1
           spinat      0.0000000000E+00  0.0000000000E+00  1.0000000000E+00
                       0.0000000000E+00  0.0000000000E+00  1.0000000000E+00
                       0.0000000000E+00  0.0000000000E+00  1.0000000000E+00
                       0.0000000000E+00  0.0000000000E+00  1.0000000000E+00
                       0.0000000000E+00  0.0000000000E+00  1.0000000000E+00
                       0.0000000000E+00  0.0000000000E+00  1.0000000000E+00
                       0.0000000000E+00  0.0000000000E+00  1.0000000000E+00
                       0.0000000000E+00  0.0000000000E+00  1.0000000000E+00
                       0.0000000000E+00  0.0000000000E+00  1.0000000000E+00
                       0.0000000000E+00  0.0000000000E+00  1.0000000000E+00
                       0.0000000000E+00  0.0000000000E+00  1.0000000000E+00
                       0.0000000000E+00  0.0000000000E+00  1.0000000000E+00
                       0.0000000000E+00  0.0000000000E+00  1.0000000000E+00
                       0.0000000000E+00  0.0000000000E+00  1.0000000000E+00
           toldfe      1.00000000E-06 Hartree
           tsmear      1.00000000E-03 Hartree
            typat      1  1  2  2  2  2  3  3  3  3  3  3  3  3
          usekden           1
              wtk        0.25000    0.25000    0.25000    0.25000
           xangst      2.5433853058E+00 -1.5202151546E+00 -2.6135032914E+00
                       0.0000000000E+00  0.0000000000E+00  0.0000000000E+00
                       3.1562750365E+00  1.1910186627E+00 -2.1474058874E+00
                       6.1288973068E-01  2.6530605942E+00 -4.6609740399E-01
                       1.9304955751E+00  1.1328454397E+00 -3.0796006954E+00
                       4.4738808809E+00 -3.2919649184E-01 -4.7609091788E+00
                       1.4881550895E+00  2.2345712582E+00 -3.5468271328E+00
                       4.0315403953E+00 -1.4309223104E+00 -4.2936827414E+00
                       3.5986155221E+00  8.9292844179E-02 -1.6801794500E+00
                       1.0552302163E+00  3.7547864128E+00 -9.3332384141E-01
                       3.6404796442E+00  2.3325325213E+00 -1.9145427441E+00
                       1.0970943384E+00  1.5115467357E+00 -6.9896054726E-01
                       1.4462909674E+00 -8.6684189171E-03 -3.3124638386E+00
                       3.9896762732E+00  8.1231736673E-01 -4.5280460355E+00
            xcart      4.8063016784E+00 -2.8727903052E+00 -4.9388054681E+00
                       0.0000000000E+00  0.0000000000E+00  0.0000000000E+00
                       5.9644954190E+00  2.2506990917E+00 -4.0580090233E+00
                       1.1581937406E+00  5.0135579370E+00 -8.8079644479E-01
                       3.6481079377E+00  2.1407676318E+00 -5.8196019129E+00
                       8.4544096161E+00 -6.2209121348E-01 -8.9968144914E+00
                       2.8122055624E+00  4.2227277024E+00 -6.7025319217E+00
                       7.6185072408E+00 -2.7040512841E+00 -8.1138844827E+00
                       6.8003977943E+00  1.6873902112E-01 -3.1750790146E+00
                       1.9940961159E+00  7.0955180076E+00 -1.7637264536E+00
                       6.8795095200E+00  4.4078476613E+00 -3.6179614561E+00
                       2.0732078416E+00  2.8564093675E+00 -1.3208440120E+00
                       2.7330938368E+00 -1.6380937759E-02 -6.2596494801E+00
                       7.5393955152E+00  1.5350573561E+00 -8.5567669242E+00
             xred     -5.0809124433E-18  5.0000000000E-01  5.0000000000E-01
                       0.0000000000E+00  0.0000000000E+00  0.0000000000E+00
                       4.5488100000E-01  6.2048700000E-01  4.1082900000E-01
                       5.4511900000E-01  1.2048700000E-01  8.9171000000E-02
                       5.4511900000E-01  3.7951300000E-01  5.8917100000E-01
                       4.5488100000E-01  8.7951300000E-01  9.1082900000E-01
                       8.0116400000E-01  2.9255400000E-01  6.7855800000E-01
                       1.9883600000E-01  7.9255400000E-01  8.2144200000E-01
                       1.9883600000E-01  7.0744600000E-01  3.2144200000E-01
                       8.0116400000E-01  2.0744600000E-01  1.7855800000E-01
                       6.4242900000E-01  7.1567600000E-01  3.6627900000E-01
                       3.5757100000E-01  2.1567600000E-01  1.3372100000E-01
                       3.5757100000E-01  2.8432400000E-01  6.3372100000E-01
                       6.4242900000E-01  7.8432400000E-01  8.6627900000E-01
            znucl       28.00000    6.00000    8.00000

================================================================================

 chkinp: Checking input parameters for consistency.

================================================================================
== DATASET  1 ==================================================================
-   mpi_nproc: 8, omp_nthreads: -1 (-1 if OMP is not activated)


--- !DatasetInfo
iteration_state: {dtset: 1, }
dimensions: {natom: 14, nkpt: 4, mband: 65, nsppol: 2, nspinor: 1, nspden: 2, mpw: 111027, }
cutoff_energies: {ecut: 180.0, pawecutdg:  -1.0, }
electrons: {nelect:   1.00000000E+02, charge:   0.00000000E+00, occopt:   3.00000000E+00, tsmear:   1.00000000E-03, }
meta: {optdriver: 0, ionmov: 0, optcell: 0, iscf: 7, paral_kgb: 0, }
...

 Exchange-correlation functional for the present dataset will be:
  GGA: Perdew-Burke-Ernzerhof functional - ixc=11
 Citation for XC functional:
  J.P.Perdew, K.Burke, M.Ernzerhof, PRL 77, 3865 (1996)

 Real(R)+Recip(G) space primitive vectors, cartesian coordinates (Bohr,Bohr^-1):
 R(1)=  0.0000000 10.1370473  0.0000000  G(1)=  0.0000000  0.0986481 -0.0573813
 R(2)=  9.6126034  0.0000000  0.0000000  G(2)=  0.1040301  0.0000000  0.0000000
 R(3)=  0.0000000 -5.7455806 -9.8776109  G(3)=  0.0000000  0.0000000 -0.1012391
 Unit cell volume ucvol=  9.6250814E+02 bohr^3
 Angles (23,13,12)=  9.00000000E+01  1.20185586E+02  9.00000000E+01 degrees

 getcut: wavevector=  0.0000  0.0000  0.0000  ngfft= 125 120 144
         ecut(hartree)=    180.000   => boxcut(ratio)=   2.02540

--- Pseudopotential description ------------------------------------------------
- pspini: atom type   1  psp file is ../Ni.pot
- pspatm: opening atomic psp file    ../Ni.pot
- Ni    ONCVPSP-4.0.1  r_core=   2.18101   2.18101   2.24723
- 28.00000  18.00000    200312                znucl, zion, pspdat
    8   11    2    4       600   0.00000      pspcod,pspxc,lmax,lloc,mmax,r2well
    5.99000000000000    0.00000000000000    0.00000000000000   rchrg,fchrg,qchrg
     nproj     2     2     2
     extension_switch     1
  pspatm : epsatm=   38.47316822
         --- l  ekb(1:nproj) -->
             0   -3.440917   -0.196078
             1   -5.406223   -1.725842
             2   -7.274254   -2.503385
 pspatm: atomic psp has been read  and splines computed

- pspini: atom type   2  psp file is ../C.pot
- pspatm: opening atomic psp file    ../C.pot
- C     ONCVPSP-4.0.1  r_core=   1.42727   1.38521
-  6.00000   4.00000    200312                znucl, zion, pspdat
    8   11    1    4       600   0.00000      pspcod,pspxc,lmax,lloc,mmax,r2well
    5.99000000000000    0.00000000000000    0.00000000000000   rchrg,fchrg,qchrg
     nproj     2     2
     extension_switch     1
  pspatm : epsatm=    2.26998732
         --- l  ekb(1:nproj) -->
             0    7.571912    0.889574
             1   -3.169338   -0.856835
 pspatm: atomic psp has been read  and splines computed

- pspini: atom type   3  psp file is ../O.pot
- pspatm: opening atomic psp file    ../O.pot
- O     ONCVPSP-4.0.1  r_core=   1.28926   1.47061
-  8.00000   6.00000    200312                znucl, zion, pspdat
    8   11    1    4       600   0.00000      pspcod,pspxc,lmax,lloc,mmax,r2well
    5.99000000000000    0.00000000000000    0.00000000000000   rchrg,fchrg,qchrg
     nproj     2     2
     extension_switch     1
  pspatm : epsatm=    3.44365635
         --- l  ekb(1:nproj) -->
             0    9.802940    1.339963
             1   -3.661294   -1.085684
 pspatm: atomic psp has been read  and splines computed

   1.13575537E+04                                ecore*ucvol(ha*bohr**3)
--------------------------------------------------------------------------------

_setup2: Arith. and geom. avg. npw (full set) are  111023.000  111023.000

================================================================================

--- !BeginCycle
iteration_state: {dtset: 1, }
solver: {iscf: 7, nstep: 60, nline: 4, wfoptalg: 0, }
tolerances: {toldfe: 1.00E-06, }
...

     iter   Etot(hartree)     deltaE(h) residm    vres2    magn
 ETOT  1  -456.62864955684    -4.57E+02 2.78E-01 9.85E+04 1.767
 ETOT  2  -456.33357381086     2.95E-01 8.17E-03 4.10E+05 3.073
 ETOT  3  -457.81154249576    -1.48E+00 1.27E-02 2.16E+05 0.371
 ETOT  4  -458.46936422750    -6.58E-01 3.04E-03 8.78E+04 2.005
 ETOT  5  -458.96755488188    -4.98E-01 1.75E-03 1.85E+04 2.653
 ETOT  6  -458.64465030717     3.23E-01 2.59E-03 7.46E+04 2.191
 ETOT  7  -459.12448726351    -4.80E-01 5.19E-04 1.27E+03 3.861
 ETOT  8  -459.13425446296    -9.77E-03 5.88E-04 2.75E+02 3.999
 ETOT  9  -459.12784542903     6.41E-03 2.95E-04 1.51E+03 4.000
 ETOT 10  -459.12871937947    -8.74E-04 2.74E-04 1.75E+03 4.000
 ETOT 11  -459.13289520308    -4.18E-03 1.25E-04 1.10E+03 4.000
 ETOT 12  -459.13455978748    -1.66E-03 2.72E-04 7.72E+02 4.000
 ETOT 13  -459.13649347371    -1.93E-03 1.43E-04 4.12E+02 4.000
 ETOT 14  -459.13712991545    -6.36E-04 2.79E-04 2.84E+02 4.000
 ETOT 15  -459.13858273613    -1.45E-03 1.66E-04 1.17E+00 4.000
 ETOT 16  -459.13858991235    -7.18E-06 2.57E-04 7.43E-01 4.000
 ETOT 17  -459.13859235226    -2.44E-06 1.49E-04 2.26E-01 4.000
 ETOT 18  -459.13859328381    -9.32E-07 2.41E-04 1.48E-02 4.000
 ETOT 19  -459.13859340805    -1.24E-07 1.40E-04 2.78E-03 4.000

 At SCF step   19, etot is converged : 
  for the second time, diff in etot=  1.242E-07 < toldfe=  1.000E-06

Result for kinetic energy density :

--------------------------------------------------------------------------------
 Total kinetic energy density [Ha/Bohr^3]
      Maximum=    1.9702E+01  at reduced coord.    0.9920    0.4917    0.4861
      Minimum=    9.5571E-04  at reduced coord.    0.0000    0.5000    0.0000
   Integrated=    2.3737E+02
 Spin up density      [Ha/Bohr^3]
      Maximum=    1.0278E+01  at reduced coord.    0.9920    0.4750    0.5000
      Minimum=    4.7313E-04  at reduced coord.    0.0000    0.0000    0.5000
   Integrated=    1.2851E+02
 Spin down density    [Ha/Bohr^3]
      Maximum=    9.8546E+00  at reduced coord.    0.0000    0.0000    0.0000
      Minimum=    4.8258E-04  at reduced coord.    0.0000    0.5000    0.0000
   Integrated=    1.0887E+02
 Magnetization (spin up - spin down) [Ha/Bohr^3]
      Maximum=    2.7576E+00  at reduced coord.    0.0240    0.0250    0.9722
      Minimum=   -1.1041E-01  at reduced coord.    0.0000    0.0000    0.0000
   Integrated=    1.9636E+01
 Relative magnetization (=zeta, between -1 and 1)
      Maximum=    2.9589E-01  at reduced coord.    0.9280    0.0917    0.0764
      Minimum=   -1.6774E-02  at reduced coord.    0.1920    0.3833    0.7917
--------------------------------------------------------------------------------

 Cartesian components of stress tensor (hartree/bohr^3)
  sigma(1 1)=  2.00156178E-05  sigma(3 2)= -1.51870625E-05
  sigma(2 2)=  1.24264754E-04  sigma(3 1)= -1.77612255E-07
  sigma(3 3)= -2.10544045E-05  sigma(2 1)=  1.01698032E-07


--- !ResultsGS
iteration_state: {dtset: 1, }
comment   : Summary of ground state results
lattice_vectors:
- [  0.0000000,  10.1370473,   0.0000000, ]
- [  9.6126034,   0.0000000,   0.0000000, ]
- [  0.0000000,  -5.7455806,  -9.8776109, ]
lattice_lengths: [  10.13705,    9.61260,   11.42711, ]
lattice_angles: [ 90.000, 120.186,  90.000, ] # degrees, (23, 13, 12)
lattice_volume:   9.6250814E+02
convergence: {deltae: -1.242E-07, res2:  2.784E-03, residm:  1.395E-04, diffor: null, }
etotal    :  -4.59138593E+02
entropy   :   0.00000000E+00
fermie    :   1.20705242E-01
cartesian_stress_tensor: # hartree/bohr^3
- [  2.00156178E-05,   1.01698032E-07,  -1.77612255E-07, ]
- [  1.01698032E-07,   1.24264754E-04,  -1.51870625E-05, ]
- [ -1.77612255E-07,  -1.51870625E-05,  -2.10544045E-05, ]
pressure_GPa:  -1.2085E+00
xred      :
- [ -5.0809E-18,   5.0000E-01,   5.0000E-01, Ni]
- [  0.0000E+00,   0.0000E+00,   0.0000E+00, Ni]
- [  4.5488E-01,   6.2049E-01,   4.1083E-01,  C]
- [  5.4512E-01,   1.2049E-01,   8.9171E-02,  C]
- [  5.4512E-01,   3.7951E-01,   5.8917E-01,  C]
- [  4.5488E-01,   8.7951E-01,   9.1083E-01,  C]
- [  8.0116E-01,   2.9255E-01,   6.7856E-01,  O]
- [  1.9884E-01,   7.9255E-01,   8.2144E-01,  O]
- [  1.9884E-01,   7.0745E-01,   3.2144E-01,  O]
- [  8.0116E-01,   2.0745E-01,   1.7856E-01,  O]
- [  6.4243E-01,   7.1568E-01,   3.6628E-01,  O]
- [  3.5757E-01,   2.1568E-01,   1.3372E-01,  O]
- [  3.5757E-01,   2.8432E-01,   6.3372E-01,  O]
- [  6.4243E-01,   7.8432E-01,   8.6628E-01,  O]
cartesian_forces: # hartree/bohr
- [ -1.22087695E-06,  -9.80456792E-07,  -6.93736884E-08, ]
- [  4.23455864E-06,   3.50663531E-06,  -1.43317665E-06, ]
- [  2.28669787E-03,   5.49924093E-03,   1.50701734E-03, ]
- [  2.26777422E-03,  -5.45454576E-03,  -1.49738078E-03, ]
- [ -2.28757818E-03,  -5.49715770E-03,  -1.50716258E-03, ]
- [ -2.26547821E-03,   5.44882356E-03,   1.49559709E-03, ]
- [  2.61285814E-03,  -2.40534372E-03,   1.46616424E-03, ]
- [  2.58171021E-03,   2.41823103E-03,  -1.44738513E-03, ]
- [ -2.61203064E-03,   2.40437257E-03,  -1.46626221E-03, ]
- [ -2.58362868E-03,  -2.41784781E-03,   1.44900968E-03, ]
- [ -4.41083364E-03,  -5.44058794E-03,  -2.31229683E-03, ]
- [ -4.37632878E-03,   5.43556351E-03,   2.28546452E-03, ]
- [  4.41117716E-03,   5.44172197E-03,   2.31219494E-03, ]
- [  4.37264684E-03,  -5.43499682E-03,  -2.28345774E-03, ]
force_length_stats: {min:   1.56737001E-06, max:   7.37679249E-03, mean:   4.94562248E-03, }
...

 Integrated electronic and magnetization densities in atomic spheres:
 ---------------------------------------------------------------------
 Radius=ratsph(iatom), smearing ratsm=  0.0000. Diff(up-dn)=approximate z local magnetic moment.
 Atom    Radius    up_density   dn_density  Total(up+dn)  Diff(up-dn)
    1   2.00000     8.859778     7.240624     16.100402     1.619154
    2   2.00000     8.859831     7.240341     16.100172     1.619490
    3   2.00000     2.782157     2.755221      5.537378     0.026937
    4   2.00000     2.782165     2.755178      5.537343     0.026986
    5   2.00000     2.782157     2.755222      5.537380     0.026935
    6   2.00000     2.782161     2.755180      5.537340     0.026981
    7   2.00000     3.317367     3.201368      6.518735     0.115999
    8   2.00000     3.317359     3.201352      6.518711     0.116007
    9   2.00000     3.317370     3.201371      6.518741     0.115999
   10   2.00000     3.317358     3.201352      6.518710     0.116005
   11   2.00000     3.319808     3.252022      6.571830     0.067786
   12   2.00000     3.319752     3.252191      6.571943     0.067561
   13   2.00000     3.319810     3.252019      6.571829     0.067790
   14   2.00000     3.319761     3.252196      6.571957     0.067565
 ---------------------------------------------------------------------
  Sum:             55.396835    51.315638    106.712473     4.081197
 Total magnetization (from the atomic spheres):             4.081197
 Total magnetization (exact up - dn):                       4.000000
================================================================================

 ----iterations are completed or convergence reached----

 Mean square residual over all n,k,spin=   55.499E-08; max=  13.952E-05
 reduced coordinates (array xred) for   14 atoms
      -0.000000000000      0.500000000000      0.500000000000
       0.000000000000      0.000000000000      0.000000000000
       0.454881000000      0.620487000000      0.410829000000
       0.545119000000      0.120487000000      0.089171000000
       0.545119000000      0.379513000000      0.589171000000
       0.454881000000      0.879513000000      0.910829000000
       0.801164000000      0.292554000000      0.678558000000
       0.198836000000      0.792554000000      0.821442000000
       0.198836000000      0.707446000000      0.321442000000
       0.801164000000      0.207446000000      0.178558000000
       0.642429000000      0.715676000000      0.366279000000
       0.357571000000      0.215676000000      0.133721000000
       0.357571000000      0.284324000000      0.633721000000
       0.642429000000      0.784324000000      0.866279000000
 rms dE/dt=  3.7361E-02; max dE/dt=  5.5727E-02; dE/dt below (all hartree)
    1       0.000011676472      0.000011772563     -0.000007125541
    2      -0.000033809393     -0.000040668375      0.000005184294
    3      -0.055744328096     -0.021981082840      0.046481256060
    4       0.055294726126     -0.021799177349     -0.046130884166
    5       0.055726685323      0.021989618425     -0.046472335232
    6      -0.055233244837      0.021777180212      0.046078774227
    7       0.024384820714     -0.025116332207      0.000661296647
    8      -0.024511984893     -0.024816919497     -0.000403372862
    9      -0.024371501019      0.025108451302     -0.000669458223
   10       0.024511575209      0.024835434516      0.000420007420
   11       0.055153235057      0.042399630995     -0.054100112065
   12      -0.055098827023      0.042067949453      0.053804590586
   13      -0.055161255656     -0.042402859656      0.054104007312
   14       0.055096557509     -0.042032482941     -0.053783126469

 cartesian coordinates (angstrom) at end:
    1      2.54338530580572    -1.52021515457544    -2.61350329138676
    2      0.00000000000000     0.00000000000000     0.00000000000000
    3      3.15627503648694     1.19101866273694    -2.14740588739426
    4      0.61288973068123     2.65306059422621    -0.46609740399250
    5      1.93049557512449     1.13284543965077    -3.07960069537925
    6      4.47388088093020    -0.32919649183850    -4.76090917878101
    7      1.48815508950937     2.23457125820910    -3.54682713279363
    8      4.03154039531509    -1.43092231039683    -4.29368274136664
    9      3.59861552210206     0.08929284417861    -1.68017944997988
   10      1.05523021629634     3.75478641278454    -0.93332384140687
   11      3.64047964423562     2.33253252130485    -1.91454274413170
   12      1.09709433842991     1.51154673565830    -0.69896054725506
   13      1.44629096737581    -0.00866841891714    -3.31246383864181
   14      3.98967627318152     0.81231736672941    -4.52804603551846

 cartesian forces (hartree/bohr) at end:
    1     -0.00000122087695    -0.00000098045679    -0.00000006937369
    2      0.00000423455864     0.00000350663531    -0.00000143317665
    3      0.00228669786757     0.00549924093228     0.00150701734295
    4      0.00226777422276    -0.00545454576356    -0.00149738078199
    5     -0.00228757817745    -0.00549715769811    -0.00150716257648
    6     -0.00226547821089     0.00544882356291     0.00149559709435
    7      0.00261285814389    -0.00240534372343     0.00146616423751
    8      0.00258171021240     0.00241823103127    -0.00144738512967
    9     -0.00261203064489     0.00240437257039    -0.00146626221015
   10     -0.00258362868384    -0.00241784780777     0.00144900968429
   11     -0.00441083363836    -0.00544058794484    -0.00231229683037
   12     -0.00437632877736     0.00543556350710     0.00228546451562
   13      0.00441117716391     0.00544172197025     0.00231219494475
   14      0.00437264684059    -0.00543499681501    -0.00228345774047
 frms,max,avg= 3.1811173E-03 5.4992409E-03  -3.824E-09 -1.714E-07  1.800E-08 h/b

 cartesian forces (eV/Angstrom) at end:
    1     -0.00006278001162    -0.00005041711113    -0.00000356733819
    2      0.00021774974180     0.00018031842264    -0.00007369690036
    3      0.11758672224766     0.28278231472921     0.07749394104112
    4      0.11661362938845    -0.28048399693878    -0.07699840919439
    5     -0.11763198959821    -0.28267519053007    -0.07750140924877
    6     -0.11649556372117     0.28018974957536     0.07690668829568
    7      0.13435855658719    -0.12368773694528     0.07539319007139
    8      0.13275686568587     0.12435042890361    -0.07442752960149
    9     -0.13431600488171     0.12363779825207    -0.07539822802678
   10     -0.13285551744543    -0.12433072276032     0.07451106755165
   11     -0.22681416608201    -0.27976625710243    -0.11890307373021
   12     -0.22503985493913     0.27950789014719     0.11752330074592
   13      0.22683183087443     0.27982457102887     0.11889783456179
   14      0.22485052215388    -0.27947874967094    -0.11742010822736
 frms,max,avg= 1.6357961E-01 2.8278231E-01  -1.966E-07 -8.814E-06  9.257E-07 e/A
 length scales=  1.000000000000  1.000000000000  1.000000000000 bohr
              =  0.529177208590  0.529177208590  0.529177208590 angstroms
 Fermi (or HOMO) energy (hartree) =   0.12071   Average Vxc (hartree)=  -0.37972
 Magnetization (Bohr magneton)=  4.00000000E+00
 Total spin up =  5.20000000E+01   Total spin down =  4.80000000E+01
 Eigenvalues (hartree) for nkpt=   4  k points, SPIN UP:
 kpt#   1, nband= 65, wtk=  0.25000, kpt=  0.2500  0.2500  0.2500 (reduced coord)
  -3.70712   -3.70708   -2.26297   -2.26293   -2.26048   -2.26045   -2.25326   -2.25318
  -0.72877   -0.71996   -0.69323   -0.69202   -0.64446   -0.64065   -0.62003   -0.61881
  -0.31648   -0.29828   -0.20858   -0.20086   -0.19385   -0.19161   -0.16442   -0.15486
  -0.14662   -0.13572   -0.12388   -0.11334   -0.08962   -0.06741   -0.05917   -0.05731
  -0.04096   -0.03427   -0.02723   -0.01593   -0.01397   -0.00168    0.00530    0.01156
   0.02442    0.02912    0.04128    0.04768    0.05037    0.05518    0.06052    0.06559
   0.06707    0.07625    0.09114    0.09798    0.20737    0.22099    0.32449    0.34208
   0.35244    0.38279    0.43307    0.43471    0.46197    0.48552    0.50521    0.51673
   0.53467
      occupation numbers for kpt#   1
   1.00000    1.00000    1.00000    1.00000    1.00000    1.00000    1.00000    1.00000
   1.00000    1.00000    1.00000    1.00000    1.00000    1.00000    1.00000    1.00000
   1.00000    1.00000    1.00000    1.00000    1.00000    1.00000    1.00000    1.00000
   1.00000    1.00000    1.00000    1.00000    1.00000    1.00000    1.00000    1.00000
   1.00000    1.00000    1.00000    1.00000    1.00000    1.00000    1.00000    1.00000
   1.00000    1.00000    1.00000    1.00000    1.00000    1.00000    1.00000    1.00000
   1.00000    1.00000    1.00000    1.00000    0.00000    0.00000    0.00000    0.00000
   0.00000    0.00000    0.00000    0.00000    0.00000    0.00000    0.00000    0.00000
   0.00000
 prteigrs : prtvol=0 or 1, do not print more k-points.

 Eigenvalues (hartree) for nkpt=   4  k points, SPIN DOWN:
 kpt#   1, nband= 65, wtk=  0.25000, kpt=  0.2500  0.2500  0.2500 (reduced coord)
  -3.65653   -3.65652   -2.19360   -2.19358   -2.19341   -2.19340   -2.18921   -2.18920
  -0.72493   -0.71596   -0.68880   -0.68759   -0.63954   -0.63553   -0.61463   -0.61352
  -0.31370   -0.29535   -0.20288   -0.19460   -0.18715   -0.18514   -0.15979   -0.14931
  -0.14290   -0.12861   -0.11828   -0.10740   -0.08703   -0.06347   -0.04441   -0.03619
  -0.02234   -0.01808   -0.00913   -0.00382    0.00923    0.01309    0.01793    0.02656
   0.03217    0.04664    0.08211    0.08540    0.08826    0.08924    0.09262    0.09785
   0.14497    0.15520    0.16864    0.17531    0.21005    0.22308    0.32511    0.34328
   0.36142    0.39220    0.43760    0.43908    0.46630    0.49025    0.50800    0.52024
   0.54186
      occupation numbers for kpt#   1
   1.00000    1.00000    1.00000    1.00000    1.00000    1.00000    1.00000    1.00000
   1.00000    1.00000    1.00000    1.00000    1.00000    1.00000    1.00000    1.00000
   1.00000    1.00000    1.00000    1.00000    1.00000    1.00000    1.00000    1.00000
   1.00000    1.00000    1.00000    1.00000    1.00000    1.00000    1.00000    1.00000
   1.00000    1.00000    1.00000    1.00000    1.00000    1.00000    1.00000    1.00000
   1.00000    1.00000    1.00000    1.00000    1.00000    1.00000    1.00000    1.00000
   0.00000    0.00000    0.00000    0.00000    0.00000    0.00000    0.00000    0.00000
   0.00000    0.00000    0.00000    0.00000    0.00000    0.00000    0.00000    0.00000
   0.00000
 prteigrs : prtvol=0 or 1, do not print more k-points.


--- !EnergyTerms
iteration_state     : {dtset: 1, }
comment             : Components of total free energy in Hartree
kinetic             :  2.37374405763451E+02
hartree             :  1.68723500247489E+02
xc                  : -6.52746674961006E+01
Ewald energy        : -2.66069393551637E+02
psp_core            :  1.17999559022458E+01
local_psp           : -4.35156626023268E+02
non_local_psp       : -1.10535768250220E+02
internal            : -4.59138593408039E+02
'-kT*entropy'       : -8.50781444045981E-12
total_energy        : -4.59138593408048E+02
total_energy_eV     : -1.24937965101669E+04
band_energy         : -5.58268803721786E+01
...


 Cartesian components of stress tensor (hartree/bohr^3)
  sigma(1 1)=  2.00156178E-05  sigma(3 2)= -1.51870625E-05
  sigma(2 2)=  1.24264754E-04  sigma(3 1)= -1.77612255E-07
  sigma(3 3)= -2.10544045E-05  sigma(2 1)=  1.01698032E-07

-Cartesian components of stress tensor (GPa)         [Pressure= -1.2085E+00 GPa]
- sigma(1 1)=  5.88879709E-01  sigma(3 2)= -4.46818730E-01
- sigma(2 2)=  3.65599468E+00  sigma(3 1)= -5.22553208E-03
- sigma(3 3)= -6.19441861E-01  sigma(2 1)=  2.99205890E-03

== END DATASET(S) ==============================================================
================================================================================
  
 -outvars: echo values of variables after computation  --------
            acell      1.0000000000E+00  1.0000000000E+00  1.0000000000E+00 Bohr
              amu      5.86900000E+01  1.20110000E+01  1.59994000E+01
        autoparal           1
           diemac      1.00000000E+00
           diemix      4.00000000E-01
             ecut      1.80000000E+02 Hartree
           ecutsm      5.00000000E-01 Hartree
           etotal     -4.5913859341E+02
            fcart     -1.2208769491E-06 -9.8045679223E-07 -6.9373688400E-08
                       4.2345586366E-06  3.5066353127E-06 -1.4331766520E-06
                       2.2866978676E-03  5.4992409323E-03  1.5070173430E-03
                       2.2677742228E-03 -5.4545457636E-03 -1.4973807820E-03
                      -2.2875781775E-03 -5.4971576981E-03 -1.5071625765E-03
                      -2.2654782109E-03  5.4488235629E-03  1.4955970943E-03
                       2.6128581439E-03 -2.4053437234E-03  1.4661642375E-03
                       2.5817102124E-03  2.4182310313E-03 -1.4473851297E-03
                      -2.6120306449E-03  2.4043725704E-03 -1.4662622102E-03
                      -2.5836286838E-03 -2.4178478078E-03  1.4490096843E-03
                      -4.4108336384E-03 -5.4405879448E-03 -2.3122968304E-03
                      -4.3763287774E-03  5.4355635071E-03  2.2854645156E-03
                       4.4111771639E-03  5.4417219703E-03  2.3121949448E-03
                       4.3726468406E-03 -5.4349968150E-03 -2.2834577405E-03
-          fftalg         312
              ixc          11
              kpt      2.50000000E-01  2.50000000E-01  2.50000000E-01
                      -2.50000000E-01  2.50000000E-01  2.50000000E-01
                       2.50000000E-01 -2.50000000E-01  2.50000000E-01
                      -2.50000000E-01 -2.50000000E-01  2.50000000E-01
         kptrlatt        2    0    0      0    2    0      0    0    2
          kptrlen      1.92252067E+01
P           mkmem           1
            natom          14
            nband          65
            ngfft         125     120     144
             nkpt           4
-        np_spkpt           8
           nspden           2
           nsppol           2
            nstep          60
             nsym           1
           ntypat           3
              occ      1.000000  1.000000  1.000000  1.000000  1.000000  1.000000
                       1.000000  1.000000  1.000000  1.000000  1.000000  1.000000
                       1.000000  1.000000  1.000000  1.000000  1.000000  1.000000
                       1.000000  1.000000  1.000000  1.000000  1.000000  1.000000
                       1.000000  1.000000  1.000000  1.000000  1.000000  1.000000
                       1.000000  1.000000  1.000000  1.000000  1.000000  1.000000
                       1.000000  1.000000  1.000000  1.000000  1.000000  1.000000
                       1.000000  1.000000  1.000000  1.000000  1.000000  1.000000
                       1.000000  1.000000  1.000000  1.000000  0.000000  0.000000
                       0.000000  0.000000  0.000000  0.000000  0.000000  0.000000
                       0.000000  0.000000  0.000000  0.000000  0.000000
                       1.000000  1.000000  1.000000  1.000000  1.000000  1.000000
                       1.000000  1.000000  1.000000  1.000000  1.000000  1.000000
                       1.000000  1.000000  1.000000  1.000000  1.000000  1.000000
                       1.000000  1.000000  1.000000  1.000000  1.000000  1.000000
                       1.000000  1.000000  1.000000  1.000000  1.000000  1.000000
                       1.000000  1.000000  1.000000  1.000000  1.000000  1.000000
                       1.000000  1.000000  1.000000  1.000000  1.000000  1.000000
                       1.000000  1.000000  1.000000  1.000000  1.000000  1.000000
                       1.000000  1.000000  1.000000  1.000000  0.000000  0.000000
                       0.000000  0.000000  0.000000  0.000000  0.000000  0.000000
                       0.000000  0.000000  0.000000  0.000000  0.000000
                       1.000000  1.000000  1.000000  1.000000  1.000000  1.000000
                       1.000000  1.000000  1.000000  1.000000  1.000000  1.000000
                       1.000000  1.000000  1.000000  1.000000  1.000000  1.000000
                       1.000000  1.000000  1.000000  1.000000  1.000000  1.000000
                       1.000000  1.000000  1.000000  1.000000  1.000000  1.000000
                       1.000000  1.000000  1.000000  1.000000  1.000000  1.000000
                       1.000000  1.000000  1.000000  1.000000  1.000000  1.000000
                       1.000000  1.000000  1.000000  1.000000  1.000000  1.000000
                       1.000000  1.000000  1.000000  1.000000  0.000000  0.000000
                       0.000000  0.000000  0.000000  0.000000  0.000000  0.000000
                       0.000000  0.000000  0.000000  0.000000  0.000000
                       1.000000  1.000000  1.000000  1.000000  1.000000  1.000000
                       1.000000  1.000000  1.000000  1.000000  1.000000  1.000000
                       1.000000  1.000000  1.000000  1.000000  1.000000  1.000000
                       1.000000  1.000000  1.000000  1.000000  1.000000  1.000000
                       1.000000  1.000000  1.000000  1.000000  1.000000  1.000000
                       1.000000  1.000000  1.000000  1.000000  1.000000  1.000000
                       1.000000  1.000000  1.000000  1.000000  1.000000  1.000000
                       1.000000  1.000000  1.000000  1.000000  1.000000  1.000000
                       1.000000  1.000000  1.000000  1.000000  0.000000  0.000000
                       0.000000  0.000000  0.000000  0.000000  0.000000  0.000000
                       0.000000  0.000000  0.000000  0.000000  0.000000
                       1.000000  1.000000  1.000000  1.000000  1.000000  1.000000
                       1.000000  1.000000  1.000000  1.000000  1.000000  1.000000
                       1.000000  1.000000  1.000000  1.000000  1.000000  1.000000
                       1.000000  1.000000  1.000000  1.000000  1.000000  1.000000
                       1.000000  1.000000  1.000000  1.000000  1.000000  1.000000
                       1.000000  1.000000  1.000000  1.000000  1.000000  1.000000
                       1.000000  1.000000  1.000000  1.000000  1.000000  1.000000
                       1.000000  1.000000  1.000000  1.000000  1.000000  1.000000
                       0.000000  0.000000  0.000000  0.000000  0.000000  0.000000
                       0.000000  0.000000  0.000000  0.000000  0.000000  0.000000
                       0.000000  0.000000  0.000000  0.000000  0.000000
                       1.000000  1.000000  1.000000  1.000000  1.000000  1.000000
                       1.000000  1.000000  1.000000  1.000000  1.000000  1.000000
                       1.000000  1.000000  1.000000  1.000000  1.000000  1.000000
                       1.000000  1.000000  1.000000  1.000000  1.000000  1.000000
                       1.000000  1.000000  1.000000  1.000000  1.000000  1.000000
                       1.000000  1.000000  1.000000  1.000000  1.000000  1.000000
                       1.000000  1.000000  1.000000  1.000000  1.000000  1.000000
                       1.000000  1.000000  1.000000  1.000000  1.000000  1.000000
                       0.000000  0.000000  0.000000  0.000000  0.000000  0.000000
                       0.000000  0.000000  0.000000  0.000000  0.000000  0.000000
                       0.000000  0.000000  0.000000  0.000000  0.000000
                       1.000000  1.000000  1.000000  1.000000  1.000000  1.000000
                       1.000000  1.000000  1.000000  1.000000  1.000000  1.000000
                       1.000000  1.000000  1.000000  1.000000  1.000000  1.000000
                       1.000000  1.000000  1.000000  1.000000  1.000000  1.000000
                       1.000000  1.000000  1.000000  1.000000  1.000000  1.000000
                       1.000000  1.000000  1.000000  1.000000  1.000000  1.000000
                       1.000000  1.000000  1.000000  1.000000  1.000000  1.000000
                       1.000000  1.000000  1.000000  1.000000  1.000000  1.000000
                       0.000000  0.000000  0.000000  0.000000  0.000000  0.000000
                       0.000000  0.000000  0.000000  0.000000  0.000000  0.000000
                       0.000000  0.000000  0.000000  0.000000  0.000000
                       1.000000  1.000000  1.000000  1.000000  1.000000  1.000000
                       1.000000  1.000000  1.000000  1.000000  1.000000  1.000000
                       1.000000  1.000000  1.000000  1.000000  1.000000  1.000000
                       1.000000  1.000000  1.000000  1.000000  1.000000  1.000000
                       1.000000  1.000000  1.000000  1.000000  1.000000  1.000000
                       1.000000  1.000000  1.000000  1.000000  1.000000  1.000000
                       1.000000  1.000000  1.000000  1.000000  1.000000  1.000000
                       1.000000  1.000000  1.000000  1.000000  1.000000  1.000000
                       0.000000  0.000000  0.000000  0.000000  0.000000  0.000000
                       0.000000  0.000000  0.000000  0.000000  0.000000  0.000000
                       0.000000  0.000000  0.000000  0.000000  0.000000
           occopt           3
           prtden           0
           prteig           0
          prtkden           1
            prtwf           0
            rprim      0.0000000000E+00  1.0137047334E+01  0.0000000000E+00
                       9.6126033568E+00  0.0000000000E+00  0.0000000000E+00
                       0.0000000000E+00 -5.7455806104E+00 -9.8776109362E+00
           shiftk      5.00000000E-01  5.00000000E-01  5.00000000E-01
          spgroup           1
           spinat      0.0000000000E+00  0.0000000000E+00  1.0000000000E+00
                       0.0000000000E+00  0.0000000000E+00  1.0000000000E+00
                       0.0000000000E+00  0.0000000000E+00  1.0000000000E+00
                       0.0000000000E+00  0.0000000000E+00  1.0000000000E+00
                       0.0000000000E+00  0.0000000000E+00  1.0000000000E+00
                       0.0000000000E+00  0.0000000000E+00  1.0000000000E+00
                       0.0000000000E+00  0.0000000000E+00  1.0000000000E+00
                       0.0000000000E+00  0.0000000000E+00  1.0000000000E+00
                       0.0000000000E+00  0.0000000000E+00  1.0000000000E+00
                       0.0000000000E+00  0.0000000000E+00  1.0000000000E+00
                       0.0000000000E+00  0.0000000000E+00  1.0000000000E+00
                       0.0000000000E+00  0.0000000000E+00  1.0000000000E+00
                       0.0000000000E+00  0.0000000000E+00  1.0000000000E+00
                       0.0000000000E+00  0.0000000000E+00  1.0000000000E+00
           strten      2.0015617842E-05  1.2426475449E-04 -2.1054404457E-05
                      -1.5187062519E-05 -1.7761225519E-07  1.0169803203E-07
           toldfe      1.00000000E-06 Hartree
           tsmear      1.00000000E-03 Hartree
            typat      1  1  2  2  2  2  3  3  3  3  3  3  3  3
          usekden           1
              wtk        0.25000    0.25000    0.25000    0.25000
           xangst      2.5433853058E+00 -1.5202151546E+00 -2.6135032914E+00
                       0.0000000000E+00  0.0000000000E+00  0.0000000000E+00
                       3.1562750365E+00  1.1910186627E+00 -2.1474058874E+00
                       6.1288973068E-01  2.6530605942E+00 -4.6609740399E-01
                       1.9304955751E+00  1.1328454397E+00 -3.0796006954E+00
                       4.4738808809E+00 -3.2919649184E-01 -4.7609091788E+00
                       1.4881550895E+00  2.2345712582E+00 -3.5468271328E+00
                       4.0315403953E+00 -1.4309223104E+00 -4.2936827414E+00
                       3.5986155221E+00  8.9292844179E-02 -1.6801794500E+00
                       1.0552302163E+00  3.7547864128E+00 -9.3332384141E-01
                       3.6404796442E+00  2.3325325213E+00 -1.9145427441E+00
                       1.0970943384E+00  1.5115467357E+00 -6.9896054726E-01
                       1.4462909674E+00 -8.6684189171E-03 -3.3124638386E+00
                       3.9896762732E+00  8.1231736673E-01 -4.5280460355E+00
            xcart      4.8063016784E+00 -2.8727903052E+00 -4.9388054681E+00
                       0.0000000000E+00  0.0000000000E+00  0.0000000000E+00
                       5.9644954190E+00  2.2506990917E+00 -4.0580090233E+00
                       1.1581937406E+00  5.0135579370E+00 -8.8079644479E-01
                       3.6481079377E+00  2.1407676318E+00 -5.8196019129E+00
                       8.4544096161E+00 -6.2209121348E-01 -8.9968144914E+00
                       2.8122055624E+00  4.2227277024E+00 -6.7025319217E+00
                       7.6185072408E+00 -2.7040512841E+00 -8.1138844827E+00
                       6.8003977943E+00  1.6873902112E-01 -3.1750790146E+00
                       1.9940961159E+00  7.0955180076E+00 -1.7637264536E+00
                       6.8795095200E+00  4.4078476613E+00 -3.6179614561E+00
                       2.0732078416E+00  2.8564093675E+00 -1.3208440120E+00
                       2.7330938368E+00 -1.6380937759E-02 -6.2596494801E+00
                       7.5393955152E+00  1.5350573561E+00 -8.5567669242E+00
             xred     -5.0809124433E-18  5.0000000000E-01  5.0000000000E-01
                       0.0000000000E+00  0.0000000000E+00  0.0000000000E+00
                       4.5488100000E-01  6.2048700000E-01  4.1082900000E-01
                       5.4511900000E-01  1.2048700000E-01  8.9171000000E-02
                       5.4511900000E-01  3.7951300000E-01  5.8917100000E-01
                       4.5488100000E-01  8.7951300000E-01  9.1082900000E-01
                       8.0116400000E-01  2.9255400000E-01  6.7855800000E-01
                       1.9883600000E-01  7.9255400000E-01  8.2144200000E-01
                       1.9883600000E-01  7.0744600000E-01  3.2144200000E-01
                       8.0116400000E-01  2.0744600000E-01  1.7855800000E-01
                       6.4242900000E-01  7.1567600000E-01  3.6627900000E-01
                       3.5757100000E-01  2.1567600000E-01  1.3372100000E-01
                       3.5757100000E-01  2.8432400000E-01  6.3372100000E-01
                       6.4242900000E-01  7.8432400000E-01  8.6627900000E-01
            znucl       28.00000    6.00000    8.00000

================================================================================


- Timing analysis has been suppressed with timopt=0



================================================================================

 Suggested references for the acknowledgment of ABINIT usage.

 The users of ABINIT have little formal obligations with respect to the ABINIT group
 (those specified in the GNU General Public License, http://www.gnu.org/copyleft/gpl.txt).
 However, it is common practice in the scientific literature,
 to acknowledge the efforts of people that have made the research possible.
 In this spirit, please find below suggested citations of work written by ABINIT developers,
 corresponding to implementations inside of ABINIT that you have used in the present run.
 Note also that it will be of great value to readers of publications presenting these results,
 to read papers enabling them to understand the theoretical formalism and details
 of the ABINIT implementation.
 For information on why they are suggested, see also https://docs.abinit.org/theory/acknowledgments.
-
- [1] The Abinit project: Impact, environment and recent developments.
- Computer Phys. Comm. 248, 107042 (2020).
- X.Gonze, B. Amadon, G. Antonius, F.Arnardi, L.Baguet, J.-M.Beuken,
- J.Bieder, F.Bottin, J.Bouchet, E.Bousquet, N.Brouwer, F.Bruneval,
- G.Brunin, T.Cavignac, J.-B. Charraud, Wei Chen, M.Cote, S.Cottenier,
- J.Denier, G.Geneste, Ph.Ghosez, M.Giantomassi, Y.Gillet, O.Gingras,
- D.R.Hamann, G.Hautier, Xu He, N.Helbig, N.Holzwarth, Y.Jia, F.Jollet,
- W.Lafargue-Dit-Hauret, K.Lejaeghere, M.A.L.Marques, A.Martin, C.Martins,
- H.P.C. Miranda, F.Naccarato, K. Persson, G.Petretto, V.Planes, Y.Pouillon,
- S.Prokhorenko, F.Ricci, G.-M.Rignanese, A.H.Romero, M.M.Schmitt, M.Torrent,
- M.J.van Setten, B.Van Troeye, M.J.Verstraete, G.Zerah and J.W.Zwanzig
- Comment: the fifth generic paper describing the ABINIT project.
- Note that a version of this paper, that is not formatted for Computer Phys. Comm. 
- is available at https://www.abinit.org/sites/default/files/ABINIT20.pdf .
- The licence allows the authors to put it on the Web.
- DOI and bibtex: see https://docs.abinit.org/theory/bibliography/#gonze2020
-
- [2] Optimized norm-conserving Vanderbilt pseudopotentials.
- D.R. Hamann, Phys. Rev. B 88, 085117 (2013).
- Comment: Some pseudopotential generated using the ONCVPSP code were used.
- DOI and bibtex: see https://docs.abinit.org/theory/bibliography/#hamann2013
-
- [3] ABINIT: Overview, and focus on selected capabilities
- J. Chem. Phys. 152, 124102 (2020).
- A. Romero, D.C. Allan, B. Amadon, G. Antonius, T. Applencourt, L.Baguet,
- J.Bieder, F.Bottin, J.Bouchet, E.Bousquet, F.Bruneval,
- G.Brunin, D.Caliste, M.Cote,
- J.Denier, C. Dreyer, Ph.Ghosez, M.Giantomassi, Y.Gillet, O.Gingras,
- D.R.Hamann, G.Hautier, F.Jollet, G. Jomard,
- A.Martin, 
- H.P.C. Miranda, F.Naccarato, G.Petretto, N.A. Pike, V.Planes,
- S.Prokhorenko, T. Rangel, F.Ricci, G.-M.Rignanese, M.Royo, M.Stengel, M.Torrent,
- M.J.van Setten, B.Van Troeye, M.J.Verstraete, J.Wiktor, J.W.Zwanziger, and X.Gonze.
- Comment: a global overview of ABINIT, with focus on selected capabilities .
- Note that a version of this paper, that is not formatted for J. Chem. Phys 
- is available at https://www.abinit.org/sites/default/files/ABINIT20_JPC.pdf .
- The licence allows the authors to put it on the Web.
- DOI and bibtex: see https://docs.abinit.org/theory/bibliography/#romero2020
-
- [4] Recent developments in the ABINIT software package.
- Computer Phys. Comm. 205, 106 (2016).
- X.Gonze, F.Jollet, F.Abreu Araujo, D.Adams, B.Amadon, T.Applencourt,
- C.Audouze, J.-M.Beuken, J.Bieder, A.Bokhanchuk, E.Bousquet, F.Bruneval
- D.Caliste, M.Cote, F.Dahm, F.Da Pieve, M.Delaveau, M.Di Gennaro,
- B.Dorado, C.Espejo, G.Geneste, L.Genovese, A.Gerossier, M.Giantomassi,
- Y.Gillet, D.R.Hamann, L.He, G.Jomard, J.Laflamme Janssen, S.Le Roux,
- A.Levitt, A.Lherbier, F.Liu, I.Lukacevic, A.Martin, C.Martins,
- M.J.T.Oliveira, S.Ponce, Y.Pouillon, T.Rangel, G.-M.Rignanese,
- A.H.Romero, B.Rousseau, O.Rubel, A.A.Shukri, M.Stankovski, M.Torrent,
- M.J.Van Setten, B.Van Troeye, M.J.Verstraete, D.Waroquier, J.Wiktor,
- B.Xu, A.Zhou, J.W.Zwanziger.
- Comment: the fourth generic paper describing the ABINIT project.
- Note that a version of this paper, that is not formatted for Computer Phys. Comm. 
- is available at https://www.abinit.org/sites/default/files/ABINIT16.pdf .
- The licence allows the authors to put it on the Web.
- DOI and bibtex: see https://docs.abinit.org/theory/bibliography/#gonze2016
-
- And optionally:
-
- [5] ABINIT: First-principles approach of materials and nanosystem properties.
- Computer Phys. Comm. 180, 2582-2615 (2009).
- X. Gonze, B. Amadon, P.-M. Anglade, J.-M. Beuken, F. Bottin, P. Boulanger, F. Bruneval,
- D. Caliste, R. Caracas, M. Cote, T. Deutsch, L. Genovese, Ph. Ghosez, M. Giantomassi
- S. Goedecker, D.R. Hamann, P. Hermet, F. Jollet, G. Jomard, S. Leroux, M. Mancini, S. Mazevet,
- M.J.T. Oliveira, G. Onida, Y. Pouillon, T. Rangel, G.-M. Rignanese, D. Sangalli, R. Shaltaf,
- M. Torrent, M.J. Verstraete, G. Zerah, J.W. Zwanziger
- Comment: the third generic paper describing the ABINIT project.
- Note that a version of this paper, that is not formatted for Computer Phys. Comm. 
- is available at https://www.abinit.org/sites/default/files/ABINIT_CPC_v10.pdf .
- The licence allows the authors to put it on the Web.
- DOI and bibtex: see https://docs.abinit.org/theory/bibliography/#gonze2009
-
- Proc.   0 individual time (sec): cpu=       3342.3  wall=       3355.3

================================================================================

 Calculation completed.
.Delivered   0 WARNINGs and   0 COMMENTs to log file.
+Overall time at end (sec) : cpu=      26765.3  wall=      26843.6
