
.Version 9.6.2 of ABINIT 
.(MPI version, prepared for a x86_64_linux_gnu10.3 computer) 

.Copyright (C) 1998-2021 ABINIT group . 
 ABINIT comes with ABSOLUTELY NO WARRANTY.
 It is free software, and you are welcome to redistribute it
 under certain conditions (GNU General Public License,
 see ~abinit/COPYING or http://www.gnu.org/copyleft/gpl.txt).

 ABINIT is a project of the Universite Catholique de Louvain,
 Corning Inc. and other collaborators, see ~abinit/doc/developers/contributors.txt .
 Please read https://docs.abinit.org/theory/acknowledgments for suggested
 acknowledgments of the ABINIT effort.
 For more information, see https://www.abinit.org .

.Starting date : Thu  8 Dec 2022.
- ( at 10h55 )
  
- input  file    -> NiC2O4.in
- output file    -> NiC2O4.out
- root for input  files -> abi
- root for output files -> abo


 Symmetries : space group P1 (#  1); Bravais aP (primitive triclinic)
================================================================================
 Values of the parameters that define the memory need of the present run
     intxc =       0    ionmov =       0      iscf =       7    lmnmax =       6
     lnmax =       6     mgfft =     108  mpssoang =       3    mqgrid =    4447
     natom =      14  nloc_mem =       1    nspden =       2   nspinor =       1
    nsppol =       2      nsym =       1    n1xccc =       0    ntypat =       3
    occopt =       3   xclevel =       2
-    mband =          65        mffmem =           1         mkmem =           1
       mpw =       45973          nfft =      933120          nkpt =           4
================================================================================
P This job should need less than                     550.279 Mbytes of memory.
  Rough estimation (10% accuracy) of disk space for files :
_ WF disk file :    364.778 Mbytes ; DEN or POT disk file :     14.240 Mbytes.
================================================================================

--------------------------------------------------------------------------------
------------- Echo of variables that govern the present computation ------------
--------------------------------------------------------------------------------
-
- outvars: echo of selected default values                                      
-   iomode0 =  0 , fftalg0 =312 , wfoptalg0 =  0
-
- outvars: echo of global parameters not present in the input file              
-  max_nthreads =    0
-
 -outvars: echo values of preprocessed input variables --------
            acell      1.0000000000E+00  1.0000000000E+00  1.0000000000E+00 Bohr
              amu      5.86900000E+01  1.20110000E+01  1.59994000E+01
        autoparal           1
           diemac      1.00000000E+00
           diemix      4.00000000E-01
             ecut      1.00000000E+02 Hartree
           ecutsm      5.00000000E-01 Hartree
-          fftalg         312
              ixc     -263267
              kpt      2.50000000E-01  2.50000000E-01  2.50000000E-01
                      -2.50000000E-01  2.50000000E-01  2.50000000E-01
                       2.50000000E-01 -2.50000000E-01  2.50000000E-01
                      -2.50000000E-01 -2.50000000E-01  2.50000000E-01
         kptrlatt        2    0    0      0    2    0      0    0    2
          kptrlen      1.92252067E+01
P           mkmem           1
            natom          14
            nband          65
            ngfft          96      90     108
             nkpt           4
-        np_spkpt           8
           nspden           2
           nsppol           2
            nstep          60
             nsym           1
           ntypat           3
              occ      1.000000  1.000000  1.000000  1.000000  1.000000  1.000000
                       1.000000  1.000000  1.000000  1.000000  1.000000  1.000000
                       1.000000  1.000000  1.000000  1.000000  1.000000  1.000000
                       1.000000  1.000000  1.000000  1.000000  1.000000  1.000000
                       1.000000  1.000000  1.000000  1.000000  1.000000  1.000000
                       1.000000  1.000000  1.000000  1.000000  1.000000  1.000000
                       1.000000  1.000000  1.000000  1.000000  1.000000  1.000000
                       1.000000  1.000000  1.000000  1.000000  1.000000  1.000000
                       1.000000  1.000000  0.000000  0.000000  0.000000  0.000000
                       0.000000  0.000000  0.000000  0.000000  0.000000  0.000000
                       0.000000  0.000000  0.000000  0.000000  0.000000
                       1.000000  1.000000  1.000000  1.000000  1.000000  1.000000
                       1.000000  1.000000  1.000000  1.000000  1.000000  1.000000
                       1.000000  1.000000  1.000000  1.000000  1.000000  1.000000
                       1.000000  1.000000  1.000000  1.000000  1.000000  1.000000
                       1.000000  1.000000  1.000000  1.000000  1.000000  1.000000
                       1.000000  1.000000  1.000000  1.000000  1.000000  1.000000
                       1.000000  1.000000  1.000000  1.000000  1.000000  1.000000
                       1.000000  1.000000  1.000000  1.000000  1.000000  1.000000
                       1.000000  1.000000  0.000000  0.000000  0.000000  0.000000
                       0.000000  0.000000  0.000000  0.000000  0.000000  0.000000
                       0.000000  0.000000  0.000000  0.000000  0.000000
                       1.000000  1.000000  1.000000  1.000000  1.000000  1.000000
                       1.000000  1.000000  1.000000  1.000000  1.000000  1.000000
                       1.000000  1.000000  1.000000  1.000000  1.000000  1.000000
                       1.000000  1.000000  1.000000  1.000000  1.000000  1.000000
                       1.000000  1.000000  1.000000  1.000000  1.000000  1.000000
                       1.000000  1.000000  1.000000  1.000000  1.000000  1.000000
                       1.000000  1.000000  1.000000  1.000000  1.000000  1.000000
                       1.000000  1.000000  1.000000  1.000000  1.000000  1.000000
                       1.000000  1.000000  0.000000  0.000000  0.000000  0.000000
                       0.000000  0.000000  0.000000  0.000000  0.000000  0.000000
                       0.000000  0.000000  0.000000  0.000000  0.000000
                       1.000000  1.000000  1.000000  1.000000  1.000000  1.000000
                       1.000000  1.000000  1.000000  1.000000  1.000000  1.000000
                       1.000000  1.000000  1.000000  1.000000  1.000000  1.000000
                       1.000000  1.000000  1.000000  1.000000  1.000000  1.000000
                       1.000000  1.000000  1.000000  1.000000  1.000000  1.000000
                       1.000000  1.000000  1.000000  1.000000  1.000000  1.000000
                       1.000000  1.000000  1.000000  1.000000  1.000000  1.000000
                       1.000000  1.000000  1.000000  1.000000  1.000000  1.000000
                       1.000000  1.000000  0.000000  0.000000  0.000000  0.000000
                       0.000000  0.000000  0.000000  0.000000  0.000000  0.000000
                       0.000000  0.000000  0.000000  0.000000  0.000000
                       1.000000  1.000000  1.000000  1.000000  1.000000  1.000000
                       1.000000  1.000000  1.000000  1.000000  1.000000  1.000000
                       1.000000  1.000000  1.000000  1.000000  1.000000  1.000000
                       1.000000  1.000000  1.000000  1.000000  1.000000  1.000000
                       1.000000  1.000000  1.000000  1.000000  1.000000  1.000000
                       1.000000  1.000000  1.000000  1.000000  1.000000  1.000000
                       1.000000  1.000000  1.000000  1.000000  1.000000  1.000000
                       1.000000  1.000000  1.000000  1.000000  1.000000  1.000000
                       1.000000  1.000000  0.000000  0.000000  0.000000  0.000000
                       0.000000  0.000000  0.000000  0.000000  0.000000  0.000000
                       0.000000  0.000000  0.000000  0.000000  0.000000
                       1.000000  1.000000  1.000000  1.000000  1.000000  1.000000
                       1.000000  1.000000  1.000000  1.000000  1.000000  1.000000
                       1.000000  1.000000  1.000000  1.000000  1.000000  1.000000
                       1.000000  1.000000  1.000000  1.000000  1.000000  1.000000
                       1.000000  1.000000  1.000000  1.000000  1.000000  1.000000
                       1.000000  1.000000  1.000000  1.000000  1.000000  1.000000
                       1.000000  1.000000  1.000000  1.000000  1.000000  1.000000
                       1.000000  1.000000  1.000000  1.000000  1.000000  1.000000
                       1.000000  1.000000  0.000000  0.000000  0.000000  0.000000
                       0.000000  0.000000  0.000000  0.000000  0.000000  0.000000
                       0.000000  0.000000  0.000000  0.000000  0.000000
                       1.000000  1.000000  1.000000  1.000000  1.000000  1.000000
                       1.000000  1.000000  1.000000  1.000000  1.000000  1.000000
                       1.000000  1.000000  1.000000  1.000000  1.000000  1.000000
                       1.000000  1.000000  1.000000  1.000000  1.000000  1.000000
                       1.000000  1.000000  1.000000  1.000000  1.000000  1.000000
                       1.000000  1.000000  1.000000  1.000000  1.000000  1.000000
                       1.000000  1.000000  1.000000  1.000000  1.000000  1.000000
                       1.000000  1.000000  1.000000  1.000000  1.000000  1.000000
                       1.000000  1.000000  0.000000  0.000000  0.000000  0.000000
                       0.000000  0.000000  0.000000  0.000000  0.000000  0.000000
                       0.000000  0.000000  0.000000  0.000000  0.000000
                       1.000000  1.000000  1.000000  1.000000  1.000000  1.000000
                       1.000000  1.000000  1.000000  1.000000  1.000000  1.000000
                       1.000000  1.000000  1.000000  1.000000  1.000000  1.000000
                       1.000000  1.000000  1.000000  1.000000  1.000000  1.000000
                       1.000000  1.000000  1.000000  1.000000  1.000000  1.000000
                       1.000000  1.000000  1.000000  1.000000  1.000000  1.000000
                       1.000000  1.000000  1.000000  1.000000  1.000000  1.000000
                       1.000000  1.000000  1.000000  1.000000  1.000000  1.000000
                       1.000000  1.000000  0.000000  0.000000  0.000000  0.000000
                       0.000000  0.000000  0.000000  0.000000  0.000000  0.000000
                       0.000000  0.000000  0.000000  0.000000  0.000000
           occopt           3
           prtden           0
           prteig           0
          prtkden           1
            prtwf           0
            rprim      0.0000000000E+00  1.0137047334E+01  0.0000000000E+00
                       9.6126033568E+00  0.0000000000E+00  0.0000000000E+00
                       0.0000000000E+00 -5.7455806104E+00 -9.8776109362E+00
           shiftk      5.00000000E-01  5.00000000E-01  5.00000000E-01
          spgroup           1
           spinat      0.0000000000E+00  0.0000000000E+00  1.0000000000E+00
                       0.0000000000E+00  0.0000000000E+00  1.0000000000E+00
                       0.0000000000E+00  0.0000000000E+00  1.0000000000E+00
                       0.0000000000E+00  0.0000000000E+00  1.0000000000E+00
                       0.0000000000E+00  0.0000000000E+00  1.0000000000E+00
                       0.0000000000E+00  0.0000000000E+00  1.0000000000E+00
                       0.0000000000E+00  0.0000000000E+00  1.0000000000E+00
                       0.0000000000E+00  0.0000000000E+00  1.0000000000E+00
                       0.0000000000E+00  0.0000000000E+00  1.0000000000E+00
                       0.0000000000E+00  0.0000000000E+00  1.0000000000E+00
                       0.0000000000E+00  0.0000000000E+00  1.0000000000E+00
                       0.0000000000E+00  0.0000000000E+00  1.0000000000E+00
                       0.0000000000E+00  0.0000000000E+00  1.0000000000E+00
                       0.0000000000E+00  0.0000000000E+00  1.0000000000E+00
           toldfe      1.00000000E-06 Hartree
           tsmear      1.00000000E-03 Hartree
            typat      1  1  2  2  2  2  3  3  3  3  3  3  3  3
          usekden           1
              wtk        0.25000    0.25000    0.25000    0.25000
           xangst      2.5433853058E+00 -1.5202151546E+00 -2.6135032914E+00
                       0.0000000000E+00  0.0000000000E+00  0.0000000000E+00
                       3.1562750365E+00  1.1910186627E+00 -2.1474058874E+00
                       6.1288973068E-01  2.6530605942E+00 -4.6609740399E-01
                       1.9304955751E+00  1.1328454397E+00 -3.0796006954E+00
                       4.4738808809E+00 -3.2919649184E-01 -4.7609091788E+00
                       1.4881550895E+00  2.2345712582E+00 -3.5468271328E+00
                       4.0315403953E+00 -1.4309223104E+00 -4.2936827414E+00
                       3.5986155221E+00  8.9292844179E-02 -1.6801794500E+00
                       1.0552302163E+00  3.7547864128E+00 -9.3332384141E-01
                       3.6404796442E+00  2.3325325213E+00 -1.9145427441E+00
                       1.0970943384E+00  1.5115467357E+00 -6.9896054726E-01
                       1.4462909674E+00 -8.6684189171E-03 -3.3124638386E+00
                       3.9896762732E+00  8.1231736673E-01 -4.5280460355E+00
            xcart      4.8063016784E+00 -2.8727903052E+00 -4.9388054681E+00
                       0.0000000000E+00  0.0000000000E+00  0.0000000000E+00
                       5.9644954190E+00  2.2506990917E+00 -4.0580090233E+00
                       1.1581937406E+00  5.0135579370E+00 -8.8079644479E-01
                       3.6481079377E+00  2.1407676318E+00 -5.8196019129E+00
                       8.4544096161E+00 -6.2209121348E-01 -8.9968144914E+00
                       2.8122055624E+00  4.2227277024E+00 -6.7025319217E+00
                       7.6185072408E+00 -2.7040512841E+00 -8.1138844827E+00
                       6.8003977943E+00  1.6873902112E-01 -3.1750790146E+00
                       1.9940961159E+00  7.0955180076E+00 -1.7637264536E+00
                       6.8795095200E+00  4.4078476613E+00 -3.6179614561E+00
                       2.0732078416E+00  2.8564093675E+00 -1.3208440120E+00
                       2.7330938368E+00 -1.6380937759E-02 -6.2596494801E+00
                       7.5393955152E+00  1.5350573561E+00 -8.5567669242E+00
             xred     -5.0809124433E-18  5.0000000000E-01  5.0000000000E-01
                       0.0000000000E+00  0.0000000000E+00  0.0000000000E+00
                       4.5488100000E-01  6.2048700000E-01  4.1082900000E-01
                       5.4511900000E-01  1.2048700000E-01  8.9171000000E-02
                       5.4511900000E-01  3.7951300000E-01  5.8917100000E-01
                       4.5488100000E-01  8.7951300000E-01  9.1082900000E-01
                       8.0116400000E-01  2.9255400000E-01  6.7855800000E-01
                       1.9883600000E-01  7.9255400000E-01  8.2144200000E-01
                       1.9883600000E-01  7.0744600000E-01  3.2144200000E-01
                       8.0116400000E-01  2.0744600000E-01  1.7855800000E-01
                       6.4242900000E-01  7.1567600000E-01  3.6627900000E-01
                       3.5757100000E-01  2.1567600000E-01  1.3372100000E-01
                       3.5757100000E-01  2.8432400000E-01  6.3372100000E-01
                       6.4242900000E-01  7.8432400000E-01  8.6627900000E-01
            znucl       28.00000    6.00000    8.00000

================================================================================

 chkinp: Checking input parameters for consistency.

================================================================================
== DATASET  1 ==================================================================
-   mpi_nproc: 8, omp_nthreads: -1 (-1 if OMP is not activated)


--- !DatasetInfo
iteration_state: {dtset: 1, }
dimensions: {natom: 14, nkpt: 4, mband: 65, nsppol: 2, nspinor: 1, nspden: 2, mpw: 45973, }
cutoff_energies: {ecut: 100.0, pawecutdg:  -1.0, }
electrons: {nelect:   1.00000000E+02, charge:   0.00000000E+00, occopt:   3.00000000E+00, tsmear:   1.00000000E-03, }
meta: {optdriver: 0, ionmov: 0, optcell: 0, iscf: 7, paral_kgb: 0, }
...

 Real(R)+Recip(G) space primitive vectors, cartesian coordinates (Bohr,Bohr^-1):
 R(1)=  0.0000000 10.1370473  0.0000000  G(1)=  0.0000000  0.0986481 -0.0573813
 R(2)=  9.6126034  0.0000000  0.0000000  G(2)=  0.1040301  0.0000000  0.0000000
 R(3)=  0.0000000 -5.7455806 -9.8776109  G(3)=  0.0000000  0.0000000 -0.1012391
 Unit cell volume ucvol=  9.6250814E+02 bohr^3
 Angles (23,13,12)=  9.00000000E+01  1.20185586E+02  9.00000000E+01 degrees

 getcut: wavevector=  0.0000  0.0000  0.0000  ngfft=  96  90 108
         ecut(hartree)=    100.000   => boxcut(ratio)=   2.07987

--- Pseudopotential description ------------------------------------------------
- pspini: atom type   1  psp file is ../Ni.pot
- pspatm: opening atomic psp file    ../Ni.pot
- Ni    ONCVPSP-4.0.1  r_core=   2.18101   2.18101   2.24723
- 28.00000  18.00000    200312                znucl, zion, pspdat
    8   11    2    4       600   0.00000      pspcod,pspxc,lmax,lloc,mmax,r2well
    5.99000000000000    0.00000000000000    0.00000000000000   rchrg,fchrg,qchrg
     nproj     2     2     2
     extension_switch     1
  pspatm : epsatm=   38.47316822
         --- l  ekb(1:nproj) -->
             0   -3.440917   -0.196078
             1   -5.406223   -1.725842
             2   -7.274254   -2.503385
 pspatm: atomic psp has been read  and splines computed

- pspini: atom type   2  psp file is ../C.pot
- pspatm: opening atomic psp file    ../C.pot
- C     ONCVPSP-4.0.1  r_core=   1.42727   1.38521
-  6.00000   4.00000    200312                znucl, zion, pspdat
    8   11    1    4       600   0.00000      pspcod,pspxc,lmax,lloc,mmax,r2well
    5.99000000000000    0.00000000000000    0.00000000000000   rchrg,fchrg,qchrg
     nproj     2     2
     extension_switch     1
  pspatm : epsatm=    2.26998732
         --- l  ekb(1:nproj) -->
             0    7.571912    0.889574
             1   -3.169338   -0.856835
 pspatm: atomic psp has been read  and splines computed

- pspini: atom type   3  psp file is ../O.pot
- pspatm: opening atomic psp file    ../O.pot
- O     ONCVPSP-4.0.1  r_core=   1.28926   1.47061
-  8.00000   6.00000    200312                znucl, zion, pspdat
    8   11    1    4       600   0.00000      pspcod,pspxc,lmax,lloc,mmax,r2well
    5.99000000000000    0.00000000000000    0.00000000000000   rchrg,fchrg,qchrg
     nproj     2     2
     extension_switch     1
  pspatm : epsatm=    3.44365635
         --- l  ekb(1:nproj) -->
             0    9.802940    1.339963
             1   -3.661294   -1.085684
 pspatm: atomic psp has been read  and splines computed

   1.13575537E+04                                ecore*ucvol(ha*bohr**3)
--------------------------------------------------------------------------------

_setup2: Arith. and geom. avg. npw (full set) are   45970.500   45970.500

================================================================================

--- !BeginCycle
iteration_state: {dtset: 1, }
solver: {iscf: 7, nstep: 60, nline: 4, wfoptalg: 0, }
tolerances: {toldfe: 1.00E-06, }
...

     iter   Etot(hartree)     deltaE(h) residm    vres2    magn
 ETOT  1  -457.45896110049    -4.57E+02 2.34E-01 4.47E+04 1.645
 ETOT  2  -458.28528041965    -8.26E-01 1.11E-02 8.02E+04 2.021
 ETOT  3  -458.49421589640    -2.09E-01 6.15E-03 6.57E+04 1.999
 ETOT  4  -458.62580639605    -1.32E-01 3.55E-03 5.11E+04 2.056
 ETOT  5  -459.06067999970    -4.35E-01 1.31E-03 2.05E+04 3.976
 ETOT  6  -459.08157564027    -2.09E-02 1.23E-03 1.67E+04 4.000
 ETOT  7  -459.11145628787    -2.99E-02 4.95E-04 7.79E+03 4.000
 ETOT  8  -459.12923967335    -1.78E-02 8.35E-04 2.91E+03 4.000
 ETOT  9  -459.13255908412    -3.32E-03 3.23E-04 1.72E+03 4.000
 ETOT 10  -459.13425481005    -1.70E-03 3.41E-04 3.38E+02 4.000
 ETOT 11  -459.13423488686     1.99E-05 2.11E-04 3.10E+02 4.000
 ETOT 12  -459.13443075787    -1.96E-04 1.89E-04 3.39E+01 4.000
 ETOT 13  -459.13452541464    -9.47E-05 1.51E-04 1.19E+01 4.000
 ETOT 14  -459.13452597314    -5.58E-07 1.12E-04 6.99E+00 4.000
 ETOT 15  -459.13453558995    -9.62E-06 9.72E-05 1.18E+00 4.000
 ETOT 16  -459.13453758315    -1.99E-06 7.88E-05 5.74E-01 4.000
 ETOT 17  -459.13453884829    -1.27E-06 7.04E-05 2.52E-01 4.000
 ETOT 18  -459.13453961904    -7.71E-07 5.42E-05 1.37E-01 4.000
 ETOT 19  -459.13454005577    -4.37E-07 4.95E-05 7.40E-02 4.000

 At SCF step   19, etot is converged : 
  for the second time, diff in etot=  4.367E-07 < toldfe=  1.000E-06

Result for kinetic energy density :

--------------------------------------------------------------------------------
 Total kinetic energy density [Ha/Bohr^3]
      Maximum=    1.9581E+01  at reduced coord.    0.0000    0.5111    0.4907
      Minimum=    9.9372E-04  at reduced coord.    0.0000    0.5000    0.0000
   Integrated=    2.3694E+02
 Spin up density      [Ha/Bohr^3]
      Maximum=    1.0239E+01  at reduced coord.    0.0208    0.5222    0.5093
      Minimum=    4.9261E-04  at reduced coord.    0.0000    0.5000    0.0000
   Integrated=    1.2859E+02
 Spin down density    [Ha/Bohr^3]
      Maximum=    9.8335E+00  at reduced coord.    0.0000    0.5000    0.5000
      Minimum=    5.0112E-04  at reduced coord.    0.0000    0.5000    0.0000
   Integrated=    1.0835E+02
 Magnetization (spin up - spin down) [Ha/Bohr^3]
      Maximum=    2.9495E+00  at reduced coord.    0.0208    0.0222    0.9722
      Minimum=   -1.6186E-01  at reduced coord.    0.0000    0.0000    0.0000
   Integrated=    2.0241E+01
 Relative magnetization (=zeta, between -1 and 1)
      Maximum=    3.1969E-01  at reduced coord.    0.0833    0.6111    0.6296
      Minimum=   -1.9254E-02  at reduced coord.    0.8125    0.6111    0.2222
--------------------------------------------------------------------------------

 Cartesian components of stress tensor (hartree/bohr^3)
  sigma(1 1)=  1.30926023E-02  sigma(3 2)=  5.07107735E-06
  sigma(2 2)=  1.30024651E-02  sigma(3 1)= -7.60217568E-08
  sigma(3 3)=  1.30692071E-02  sigma(2 1)= -2.00886323E-08


--- !ResultsGS
iteration_state: {dtset: 1, }
comment   : Summary of ground state results
lattice_vectors:
- [  0.0000000,  10.1370473,   0.0000000, ]
- [  9.6126034,   0.0000000,   0.0000000, ]
- [  0.0000000,  -5.7455806,  -9.8776109, ]
lattice_lengths: [  10.13705,    9.61260,   11.42711, ]
lattice_angles: [ 90.000, 120.186,  90.000, ] # degrees, (23, 13, 12)
lattice_volume:   9.6250814E+02
convergence: {deltae: -4.367E-07, res2:  7.403E-02, residm:  4.946E-05, diffor: null, }
etotal    :  -4.59134540E+02
entropy   :   0.00000000E+00
fermie    :   1.25709137E-01
cartesian_stress_tensor: # hartree/bohr^3
- [  1.30926023E-02,  -2.00886323E-08,  -7.60217568E-08, ]
- [ -2.00886323E-08,   1.30024651E-02,   5.07107735E-06, ]
- [ -7.60217568E-08,   5.07107735E-06,   1.30692071E-02, ]
pressure_GPa:  -3.8408E+02
xred      :
- [ -5.0809E-18,   5.0000E-01,   5.0000E-01, Ni]
- [  0.0000E+00,   0.0000E+00,   0.0000E+00, Ni]
- [  4.5488E-01,   6.2049E-01,   4.1083E-01,  C]
- [  5.4512E-01,   1.2049E-01,   8.9171E-02,  C]
- [  5.4512E-01,   3.7951E-01,   5.8917E-01,  C]
- [  4.5488E-01,   8.7951E-01,   9.1083E-01,  C]
- [  8.0116E-01,   2.9255E-01,   6.7856E-01,  O]
- [  1.9884E-01,   7.9255E-01,   8.2144E-01,  O]
- [  1.9884E-01,   7.0745E-01,   3.2144E-01,  O]
- [  8.0116E-01,   2.0745E-01,   1.7856E-01,  O]
- [  6.4243E-01,   7.1568E-01,   3.6628E-01,  O]
- [  3.5757E-01,   2.1568E-01,   1.3372E-01,  O]
- [  3.5757E-01,   2.8432E-01,   6.3372E-01,  O]
- [  6.4243E-01,   7.8432E-01,   8.6628E-01,  O]
cartesian_forces: # hartree/bohr
- [  1.35891963E-07,   1.75187622E-05,  -1.66705640E-06, ]
- [ -3.79129574E-06,   6.53941338E-06,  -6.36721979E-06, ]
- [  6.07644991E-03,   5.46655456E-03,   4.51382878E-03, ]
- [  6.09003078E-03,  -5.52912990E-03,  -4.51000061E-03, ]
- [ -6.07667024E-03,  -5.49100073E-03,  -4.51127886E-03, ]
- [ -6.08940583E-03,   5.52104484E-03,   4.51137291E-03, ]
- [  5.51969096E-03,  -1.04889029E-02,   4.95994469E-03, ]
- [  5.55126248E-03,   1.04624747E-02,  -4.94121237E-03, ]
- [ -5.52160117E-03,   1.04919572E-02,  -4.95999874E-03, ]
- [ -5.55060425E-03,  -1.04641627E-02,   4.94108030E-03, ]
- [ -1.04255315E-02,  -1.33195163E-02,  -3.74144260E-03, ]
- [ -1.04154047E-02,   1.33395480E-02,   3.78339451E-03, ]
- [  1.04334310E-02,   1.33232987E-02,   3.74469296E-03, ]
- [  1.04120080E-02,  -1.33362236E-02,  -3.78234671E-03, ]
force_length_stats: {min:   9.88328582E-06, max:   1.73418070E-02, mean:   1.12981547E-02, }
...

 Integrated electronic and magnetization densities in atomic spheres:
 ---------------------------------------------------------------------
 Radius=ratsph(iatom), smearing ratsm=  0.0000. Diff(up-dn)=approximate z local magnetic moment.
 Atom    Radius    up_density   dn_density  Total(up+dn)  Diff(up-dn)
    1   2.00000     8.887000     7.166327     16.053326     1.720673
    2   2.00000     8.887014     7.166327     16.053341     1.720687
    3   2.00000     2.764812     2.746655      5.511467     0.018157
    4   2.00000     2.764823     2.746657      5.511480     0.018166
    5   2.00000     2.764813     2.746656      5.511469     0.018157
    6   2.00000     2.764821     2.746656      5.511477     0.018165
    7   2.00000     3.321974     3.233168      6.555141     0.088806
    8   2.00000     3.321975     3.233187      6.555162     0.088789
    9   2.00000     3.321956     3.233146      6.555102     0.088810
   10   2.00000     3.321982     3.233193      6.555175     0.088789
   11   2.00000     3.327147     3.277769      6.604915     0.049378
   12   2.00000     3.327085     3.277753      6.604838     0.049332
   13   2.00000     3.327127     3.277749      6.604876     0.049378
   14   2.00000     3.327093     3.277761      6.604854     0.049333
 ---------------------------------------------------------------------
  Sum:             55.429622    51.363003    106.792625     4.066619
 Total magnetization (from the atomic spheres):             4.066619
 Total magnetization (exact up - dn):                       4.000000
================================================================================

 ----iterations are completed or convergence reached----

 Mean square residual over all n,k,spin=   21.602E-08; max=  49.459E-06
 reduced coordinates (array xred) for   14 atoms
      -0.000000000000      0.500000000000      0.500000000000
       0.000000000000      0.000000000000      0.000000000000
       0.454881000000      0.620487000000      0.410829000000
       0.545119000000      0.120487000000      0.089171000000
       0.545119000000      0.379513000000      0.589171000000
       0.454881000000      0.879513000000      0.910829000000
       0.801164000000      0.292554000000      0.678558000000
       0.198836000000      0.792554000000      0.821442000000
       0.198836000000      0.707446000000      0.321442000000
       0.801164000000      0.207446000000      0.178558000000
       0.642429000000      0.715676000000      0.366279000000
       0.357571000000      0.215676000000      0.133721000000
       0.357571000000      0.284324000000      0.633721000000
       0.642429000000      0.784324000000      0.866279000000
 rms dE/dt=  8.0360E-02; max dE/dt=  1.3519E-01; dE/dt below (all hartree)
    1      -0.000173419671     -0.000001356641      0.000082648186
    2      -0.000062121492      0.000036393857     -0.000026860933
    3      -0.055410553465     -0.058410553209      0.075992833702
    4       0.056053220404     -0.058541100670     -0.076317633611
    5       0.055666703161      0.058412570424     -0.076111185483
    6      -0.055962924056      0.058534992511      0.076281653831
    7       0.106330674096     -0.053058650221     -0.011273973973
    8      -0.106054432230     -0.053362134674      0.011304077572
    9      -0.106353297820      0.053076911585      0.011287907278
   10       0.106079881527      0.053355706678     -0.011318162309
   11       0.135024736301      0.100216448510     -0.113486409828
   12      -0.135219460827      0.100119104256      0.114012806726
   13      -0.135054741098     -0.100292484386      0.113537166329
   14       0.135194099085     -0.100086553128     -0.113986437847

 cartesian coordinates (angstrom) at end:
    1      2.54338530580572    -1.52021515457544    -2.61350329138676
    2      0.00000000000000     0.00000000000000     0.00000000000000
    3      3.15627503648694     1.19101866273694    -2.14740588739426
    4      0.61288973068123     2.65306059422621    -0.46609740399250
    5      1.93049557512449     1.13284543965077    -3.07960069537925
    6      4.47388088093020    -0.32919649183850    -4.76090917878101
    7      1.48815508950937     2.23457125820910    -3.54682713279363
    8      4.03154039531509    -1.43092231039683    -4.29368274136664
    9      3.59861552210206     0.08929284417861    -1.68017944997988
   10      1.05523021629634     3.75478641278454    -0.93332384140687
   11      3.64047964423562     2.33253252130485    -1.91454274413170
   12      1.09709433842991     1.51154673565830    -0.69896054725506
   13      1.44629096737581    -0.00866841891714    -3.31246383864181
   14      3.98967627318152     0.81231736672941    -4.52804603551846

 cartesian forces (hartree/bohr) at end:
    1      0.00000013589196     0.00001751876223    -0.00000166705640
    2     -0.00000379129574     0.00000653941338    -0.00000636721979
    3      0.00607644991441     0.00546655455883     0.00451382878421
    4      0.00609003077863    -0.00552912990402    -0.00451000060536
    5     -0.00607667024434    -0.00549100072989    -0.00451127886134
    6     -0.00608940582519     0.00552104484303     0.00451137290776
    7      0.00551969096063    -0.01048890290655     0.00495994469181
    8      0.00555126247583     0.01046247468188    -0.00494121237132
    9     -0.00552160117092     0.01049195719096    -0.00495999873853
   10     -0.00555060424970    -0.01046416270744     0.00494108029788
   11     -0.01042553147730    -0.01331951632475    -0.00374144260091
   12     -0.01041540474576     0.01333954801854     0.00378339451312
   13      0.01043343101750     0.01332329873775     0.00374469296406
   14      0.01041200796999    -0.01333622363395    -0.00378234670520
 frms,max,avg= 7.2571758E-03 1.3339548E-02   5.239E-09 -4.112E-07  8.323E-08 h/b

 cartesian forces (eV/Angstrom) at end:
    1      0.00000698784509     0.00090085089842    -0.00008572347965
    2     -0.00019495624923     0.00033627012809    -0.00032741557839
    3      0.31246359148321     0.28110151396779     0.23211038898061
    4      0.31316194754124    -0.28431926732251    -0.23191353612603
    5     -0.31247492130290    -0.28235858652092    -0.23197926668563
    6     -0.31312981114594     0.28390351680558     0.23198410274672
    7      0.28383389737890    -0.53936102807753     0.25505058937243
    8      0.28545736982875     0.53800203423880    -0.25408733480413
    9     -0.28393212433320     0.53951808568363    -0.25505336856581
   10     -0.28542352248292    -0.53808883599593     0.25408054331562
   11     -0.53610233843820    -0.68491701014130    -0.19239269785386
   12     -0.53558160100891     0.68594708116516     0.19454995173455
   13      0.53650854909349     0.68511150962154     0.19255983823327
   14      0.53540693179062    -0.68577613445081    -0.19449607128969
 frms,max,avg= 3.7317895E-01 6.8594708E-01   2.694E-07 -2.115E-05  4.280E-06 e/A
 length scales=  1.000000000000  1.000000000000  1.000000000000 bohr
              =  0.529177208590  0.529177208590  0.529177208590 angstroms
 Fermi (or HOMO) energy (hartree) =   0.12571   Average Vxc (hartree)=  -0.40674
 Magnetization (Bohr magneton)=  4.00000000E+00
 Total spin up =  5.20000000E+01   Total spin down =  4.80000000E+01
 Eigenvalues (hartree) for nkpt=   4  k points, SPIN UP:
 kpt#   1, nband= 65, wtk=  0.25000, kpt=  0.2500  0.2500  0.2500 (reduced coord)
  -3.86534   -3.86534   -2.39102   -2.39102   -2.38978   -2.38978   -2.38381   -2.38378
  -0.78951   -0.78083   -0.75459   -0.75345   -0.70478   -0.70102   -0.68169   -0.68048
  -0.35280   -0.33424   -0.23527   -0.22904   -0.21685   -0.21455   -0.18518   -0.17742
  -0.16607   -0.15700   -0.14326   -0.13206   -0.10436   -0.09119   -0.08280   -0.07810
  -0.06547   -0.06206   -0.05190   -0.03618   -0.03339   -0.02232   -0.01957   -0.01264
   0.00308    0.00628    0.00696    0.01326    0.01796    0.02566    0.03163    0.03720
   0.03900    0.04960    0.06360    0.07015    0.21246    0.22710    0.34227    0.35396
   0.36183    0.39006    0.43786    0.44079    0.46870    0.49467    0.51696    0.52836
   0.54533
      occupation numbers for kpt#   1
   1.00000    1.00000    1.00000    1.00000    1.00000    1.00000    1.00000    1.00000
   1.00000    1.00000    1.00000    1.00000    1.00000    1.00000    1.00000    1.00000
   1.00000    1.00000    1.00000    1.00000    1.00000    1.00000    1.00000    1.00000
   1.00000    1.00000    1.00000    1.00000    1.00000    1.00000    1.00000    1.00000
   1.00000    1.00000    1.00000    1.00000    1.00000    1.00000    1.00000    1.00000
   1.00000    1.00000    1.00000    1.00000    1.00000    1.00000    1.00000    1.00000
   1.00000    1.00000    1.00000    1.00000    0.00000    0.00000    0.00000    0.00000
   0.00000    0.00000    0.00000    0.00000    0.00000    0.00000    0.00000    0.00000
   0.00000
 prteigrs : prtvol=0 or 1, do not print more k-points.

 Eigenvalues (hartree) for nkpt=   4  k points, SPIN DOWN:
 kpt#   1, nband= 65, wtk=  0.25000, kpt=  0.2500  0.2500  0.2500 (reduced coord)
  -3.78523   -3.78522   -2.27545   -2.27543   -2.27384   -2.27383   -2.27213   -2.27213
  -0.78592   -0.77708   -0.75036   -0.74920   -0.70014   -0.69607   -0.67644   -0.67535
  -0.35030   -0.33157   -0.22865   -0.22143   -0.20977   -0.20780   -0.17977   -0.17030
  -0.16228   -0.14734   -0.13665   -0.12462   -0.10150   -0.07724   -0.05958   -0.05089
  -0.03701   -0.03311   -0.02645   -0.01892   -0.00343   -0.00200    0.00450    0.01131
   0.01679    0.02800    0.04524    0.05147    0.05493    0.05807    0.06011    0.06351
   0.17934    0.18762    0.19900    0.20680    0.21746    0.22991    0.34296    0.36101
   0.36766    0.40053    0.44282    0.44773    0.47432    0.50071    0.52075    0.53266
   0.54981
      occupation numbers for kpt#   1
   1.00000    1.00000    1.00000    1.00000    1.00000    1.00000    1.00000    1.00000
   1.00000    1.00000    1.00000    1.00000    1.00000    1.00000    1.00000    1.00000
   1.00000    1.00000    1.00000    1.00000    1.00000    1.00000    1.00000    1.00000
   1.00000    1.00000    1.00000    1.00000    1.00000    1.00000    1.00000    1.00000
   1.00000    1.00000    1.00000    1.00000    1.00000    1.00000    1.00000    1.00000
   1.00000    1.00000    1.00000    1.00000    1.00000    1.00000    1.00000    1.00000
   0.00000    0.00000    0.00000    0.00000    0.00000    0.00000    0.00000    0.00000
   0.00000    0.00000    0.00000    0.00000    0.00000    0.00000    0.00000    0.00000
   0.00000
 prteigrs : prtvol=0 or 1, do not print more k-points.


--- !EnergyTerms
iteration_state     : {dtset: 1, }
comment             : Components of total free energy in Hartree
kinetic             :  2.36943530271320E+02
hartree             :  1.68631361390092E+02
xc                  : -6.53926251743145E+01
Ewald energy        : -2.66069393551637E+02
psp_core            :  1.17999559022458E+01
local_psp           : -4.34735719657107E+02
non_local_psp       : -1.10311649236370E+02
internal            : -4.59134540055771E+02
'-kT*entropy'       :  4.26290451696855E-15
total_energy        : -4.59134540055771E+02
total_energy_eV     : -1.24936862128421E+04
band_energy         : -6.02502594838237E+01
...


 Cartesian components of stress tensor (hartree/bohr^3)
  sigma(1 1)=  1.30926023E-02  sigma(3 2)=  5.07107735E-06
  sigma(2 2)=  1.30024651E-02  sigma(3 1)= -7.60217568E-08
  sigma(3 3)=  1.30692071E-02  sigma(2 1)= -2.00886323E-08

-Cartesian components of stress tensor (GPa)         [Pressure= -3.8408E+02 GPa]
- sigma(1 1)=  3.85197595E+02  sigma(3 2)=  1.49196221E-01
- sigma(2 2)=  3.82545666E+02  sigma(3 1)= -2.23663693E-03
- sigma(3 3)=  3.84509282E+02  sigma(2 1)= -5.91027869E-04

== END DATASET(S) ==============================================================
================================================================================
  
 -outvars: echo values of variables after computation  --------
            acell      1.0000000000E+00  1.0000000000E+00  1.0000000000E+00 Bohr
              amu      5.86900000E+01  1.20110000E+01  1.59994000E+01
        autoparal           1
           diemac      1.00000000E+00
           diemix      4.00000000E-01
             ecut      1.00000000E+02 Hartree
           ecutsm      5.00000000E-01 Hartree
           etotal     -4.5913454006E+02
            fcart      1.3589196256E-07  1.7518762230E-05 -1.6670564021E-06
                      -3.7912957421E-06  6.5394133804E-06 -6.3672197899E-06
                       6.0764499144E-03  5.4665545588E-03  4.5138287842E-03
                       6.0900307786E-03 -5.5291299040E-03 -4.5100006054E-03
                      -6.0766702443E-03 -5.4910007299E-03 -4.5112788613E-03
                      -6.0894058252E-03  5.5210448430E-03  4.5113729078E-03
                       5.5196909606E-03 -1.0488902907E-02  4.9599446918E-03
                       5.5512624758E-03  1.0462474682E-02 -4.9412123713E-03
                      -5.5216011709E-03  1.0491957191E-02 -4.9599987385E-03
                      -5.5506042497E-03 -1.0464162707E-02  4.9410802979E-03
                      -1.0425531477E-02 -1.3319516325E-02 -3.7414426009E-03
                      -1.0415404746E-02  1.3339548019E-02  3.7833945131E-03
                       1.0433431017E-02  1.3323298738E-02  3.7446929641E-03
                       1.0412007970E-02 -1.3336223634E-02 -3.7823467052E-03
-          fftalg         312
              ixc     -263267
              kpt      2.50000000E-01  2.50000000E-01  2.50000000E-01
                      -2.50000000E-01  2.50000000E-01  2.50000000E-01
                       2.50000000E-01 -2.50000000E-01  2.50000000E-01
                      -2.50000000E-01 -2.50000000E-01  2.50000000E-01
         kptrlatt        2    0    0      0    2    0      0    0    2
          kptrlen      1.92252067E+01
P           mkmem           1
            natom          14
            nband          65
            ngfft          96      90     108
             nkpt           4
-        np_spkpt           8
           nspden           2
           nsppol           2
            nstep          60
             nsym           1
           ntypat           3
              occ      1.000000  1.000000  1.000000  1.000000  1.000000  1.000000
                       1.000000  1.000000  1.000000  1.000000  1.000000  1.000000
                       1.000000  1.000000  1.000000  1.000000  1.000000  1.000000
                       1.000000  1.000000  1.000000  1.000000  1.000000  1.000000
                       1.000000  1.000000  1.000000  1.000000  1.000000  1.000000
                       1.000000  1.000000  1.000000  1.000000  1.000000  1.000000
                       1.000000  1.000000  1.000000  1.000000  1.000000  1.000000
                       1.000000  1.000000  1.000000  1.000000  1.000000  1.000000
                       1.000000  1.000000  1.000000  1.000000  0.000000  0.000000
                       0.000000  0.000000  0.000000  0.000000  0.000000  0.000000
                       0.000000  0.000000  0.000000  0.000000  0.000000
                       1.000000  1.000000  1.000000  1.000000  1.000000  1.000000
                       1.000000  1.000000  1.000000  1.000000  1.000000  1.000000
                       1.000000  1.000000  1.000000  1.000000  1.000000  1.000000
                       1.000000  1.000000  1.000000  1.000000  1.000000  1.000000
                       1.000000  1.000000  1.000000  1.000000  1.000000  1.000000
                       1.000000  1.000000  1.000000  1.000000  1.000000  1.000000
                       1.000000  1.000000  1.000000  1.000000  1.000000  1.000000
                       1.000000  1.000000  1.000000  1.000000  1.000000  1.000000
                       1.000000  1.000000  1.000000  1.000000  0.000000  0.000000
                       0.000000  0.000000  0.000000  0.000000  0.000000  0.000000
                       0.000000  0.000000  0.000000  0.000000  0.000000
                       1.000000  1.000000  1.000000  1.000000  1.000000  1.000000
                       1.000000  1.000000  1.000000  1.000000  1.000000  1.000000
                       1.000000  1.000000  1.000000  1.000000  1.000000  1.000000
                       1.000000  1.000000  1.000000  1.000000  1.000000  1.000000
                       1.000000  1.000000  1.000000  1.000000  1.000000  1.000000
                       1.000000  1.000000  1.000000  1.000000  1.000000  1.000000
                       1.000000  1.000000  1.000000  1.000000  1.000000  1.000000
                       1.000000  1.000000  1.000000  1.000000  1.000000  1.000000
                       1.000000  1.000000  1.000000  1.000000  0.000000  0.000000
                       0.000000  0.000000  0.000000  0.000000  0.000000  0.000000
                       0.000000  0.000000  0.000000  0.000000  0.000000
                       1.000000  1.000000  1.000000  1.000000  1.000000  1.000000
                       1.000000  1.000000  1.000000  1.000000  1.000000  1.000000
                       1.000000  1.000000  1.000000  1.000000  1.000000  1.000000
                       1.000000  1.000000  1.000000  1.000000  1.000000  1.000000
                       1.000000  1.000000  1.000000  1.000000  1.000000  1.000000
                       1.000000  1.000000  1.000000  1.000000  1.000000  1.000000
                       1.000000  1.000000  1.000000  1.000000  1.000000  1.000000
                       1.000000  1.000000  1.000000  1.000000  1.000000  1.000000
                       1.000000  1.000000  1.000000  1.000000  0.000000  0.000000
                       0.000000  0.000000  0.000000  0.000000  0.000000  0.000000
                       0.000000  0.000000  0.000000  0.000000  0.000000
                       1.000000  1.000000  1.000000  1.000000  1.000000  1.000000
                       1.000000  1.000000  1.000000  1.000000  1.000000  1.000000
                       1.000000  1.000000  1.000000  1.000000  1.000000  1.000000
                       1.000000  1.000000  1.000000  1.000000  1.000000  1.000000
                       1.000000  1.000000  1.000000  1.000000  1.000000  1.000000
                       1.000000  1.000000  1.000000  1.000000  1.000000  1.000000
                       1.000000  1.000000  1.000000  1.000000  1.000000  1.000000
                       1.000000  1.000000  1.000000  1.000000  1.000000  1.000000
                       0.000000  0.000000  0.000000  0.000000  0.000000  0.000000
                       0.000000  0.000000  0.000000  0.000000  0.000000  0.000000
                       0.000000  0.000000  0.000000  0.000000  0.000000
                       1.000000  1.000000  1.000000  1.000000  1.000000  1.000000
                       1.000000  1.000000  1.000000  1.000000  1.000000  1.000000
                       1.000000  1.000000  1.000000  1.000000  1.000000  1.000000
                       1.000000  1.000000  1.000000  1.000000  1.000000  1.000000
                       1.000000  1.000000  1.000000  1.000000  1.000000  1.000000
                       1.000000  1.000000  1.000000  1.000000  1.000000  1.000000
                       1.000000  1.000000  1.000000  1.000000  1.000000  1.000000
                       1.000000  1.000000  1.000000  1.000000  1.000000  1.000000
                       0.000000  0.000000  0.000000  0.000000  0.000000  0.000000
                       0.000000  0.000000  0.000000  0.000000  0.000000  0.000000
                       0.000000  0.000000  0.000000  0.000000  0.000000
                       1.000000  1.000000  1.000000  1.000000  1.000000  1.000000
                       1.000000  1.000000  1.000000  1.000000  1.000000  1.000000
                       1.000000  1.000000  1.000000  1.000000  1.000000  1.000000
                       1.000000  1.000000  1.000000  1.000000  1.000000  1.000000
                       1.000000  1.000000  1.000000  1.000000  1.000000  1.000000
                       1.000000  1.000000  1.000000  1.000000  1.000000  1.000000
                       1.000000  1.000000  1.000000  1.000000  1.000000  1.000000
                       1.000000  1.000000  1.000000  1.000000  1.000000  1.000000
                       0.000000  0.000000  0.000000  0.000000  0.000000  0.000000
                       0.000000  0.000000  0.000000  0.000000  0.000000  0.000000
                       0.000000  0.000000  0.000000  0.000000  0.000000
                       1.000000  1.000000  1.000000  1.000000  1.000000  1.000000
                       1.000000  1.000000  1.000000  1.000000  1.000000  1.000000
                       1.000000  1.000000  1.000000  1.000000  1.000000  1.000000
                       1.000000  1.000000  1.000000  1.000000  1.000000  1.000000
                       1.000000  1.000000  1.000000  1.000000  1.000000  1.000000
                       1.000000  1.000000  1.000000  1.000000  1.000000  1.000000
                       1.000000  1.000000  1.000000  1.000000  1.000000  1.000000
                       1.000000  1.000000  1.000000  1.000000  1.000000  1.000000
                       0.000000  0.000000  0.000000  0.000000  0.000000  0.000000
                       0.000000  0.000000  0.000000  0.000000  0.000000  0.000000
                       0.000000  0.000000  0.000000  0.000000  0.000000
           occopt           3
           prtden           0
           prteig           0
          prtkden           1
            prtwf           0
            rprim      0.0000000000E+00  1.0137047334E+01  0.0000000000E+00
                       9.6126033568E+00  0.0000000000E+00  0.0000000000E+00
                       0.0000000000E+00 -5.7455806104E+00 -9.8776109362E+00
           shiftk      5.00000000E-01  5.00000000E-01  5.00000000E-01
          spgroup           1
           spinat      0.0000000000E+00  0.0000000000E+00  1.0000000000E+00
                       0.0000000000E+00  0.0000000000E+00  1.0000000000E+00
                       0.0000000000E+00  0.0000000000E+00  1.0000000000E+00
                       0.0000000000E+00  0.0000000000E+00  1.0000000000E+00
                       0.0000000000E+00  0.0000000000E+00  1.0000000000E+00
                       0.0000000000E+00  0.0000000000E+00  1.0000000000E+00
                       0.0000000000E+00  0.0000000000E+00  1.0000000000E+00
                       0.0000000000E+00  0.0000000000E+00  1.0000000000E+00
                       0.0000000000E+00  0.0000000000E+00  1.0000000000E+00
                       0.0000000000E+00  0.0000000000E+00  1.0000000000E+00
                       0.0000000000E+00  0.0000000000E+00  1.0000000000E+00
                       0.0000000000E+00  0.0000000000E+00  1.0000000000E+00
                       0.0000000000E+00  0.0000000000E+00  1.0000000000E+00
                       0.0000000000E+00  0.0000000000E+00  1.0000000000E+00
           strten      1.3092602329E-02  1.3002465107E-02  1.3069207063E-02
                       5.0710773459E-06 -7.6021756782E-08 -2.0088632321E-08
           toldfe      1.00000000E-06 Hartree
           tsmear      1.00000000E-03 Hartree
            typat      1  1  2  2  2  2  3  3  3  3  3  3  3  3
          usekden           1
              wtk        0.25000    0.25000    0.25000    0.25000
           xangst      2.5433853058E+00 -1.5202151546E+00 -2.6135032914E+00
                       0.0000000000E+00  0.0000000000E+00  0.0000000000E+00
                       3.1562750365E+00  1.1910186627E+00 -2.1474058874E+00
                       6.1288973068E-01  2.6530605942E+00 -4.6609740399E-01
                       1.9304955751E+00  1.1328454397E+00 -3.0796006954E+00
                       4.4738808809E+00 -3.2919649184E-01 -4.7609091788E+00
                       1.4881550895E+00  2.2345712582E+00 -3.5468271328E+00
                       4.0315403953E+00 -1.4309223104E+00 -4.2936827414E+00
                       3.5986155221E+00  8.9292844179E-02 -1.6801794500E+00
                       1.0552302163E+00  3.7547864128E+00 -9.3332384141E-01
                       3.6404796442E+00  2.3325325213E+00 -1.9145427441E+00
                       1.0970943384E+00  1.5115467357E+00 -6.9896054726E-01
                       1.4462909674E+00 -8.6684189171E-03 -3.3124638386E+00
                       3.9896762732E+00  8.1231736673E-01 -4.5280460355E+00
            xcart      4.8063016784E+00 -2.8727903052E+00 -4.9388054681E+00
                       0.0000000000E+00  0.0000000000E+00  0.0000000000E+00
                       5.9644954190E+00  2.2506990917E+00 -4.0580090233E+00
                       1.1581937406E+00  5.0135579370E+00 -8.8079644479E-01
                       3.6481079377E+00  2.1407676318E+00 -5.8196019129E+00
                       8.4544096161E+00 -6.2209121348E-01 -8.9968144914E+00
                       2.8122055624E+00  4.2227277024E+00 -6.7025319217E+00
                       7.6185072408E+00 -2.7040512841E+00 -8.1138844827E+00
                       6.8003977943E+00  1.6873902112E-01 -3.1750790146E+00
                       1.9940961159E+00  7.0955180076E+00 -1.7637264536E+00
                       6.8795095200E+00  4.4078476613E+00 -3.6179614561E+00
                       2.0732078416E+00  2.8564093675E+00 -1.3208440120E+00
                       2.7330938368E+00 -1.6380937759E-02 -6.2596494801E+00
                       7.5393955152E+00  1.5350573561E+00 -8.5567669242E+00
             xred     -5.0809124433E-18  5.0000000000E-01  5.0000000000E-01
                       0.0000000000E+00  0.0000000000E+00  0.0000000000E+00
                       4.5488100000E-01  6.2048700000E-01  4.1082900000E-01
                       5.4511900000E-01  1.2048700000E-01  8.9171000000E-02
                       5.4511900000E-01  3.7951300000E-01  5.8917100000E-01
                       4.5488100000E-01  8.7951300000E-01  9.1082900000E-01
                       8.0116400000E-01  2.9255400000E-01  6.7855800000E-01
                       1.9883600000E-01  7.9255400000E-01  8.2144200000E-01
                       1.9883600000E-01  7.0744600000E-01  3.2144200000E-01
                       8.0116400000E-01  2.0744600000E-01  1.7855800000E-01
                       6.4242900000E-01  7.1567600000E-01  3.6627900000E-01
                       3.5757100000E-01  2.1567600000E-01  1.3372100000E-01
                       3.5757100000E-01  2.8432400000E-01  6.3372100000E-01
                       6.4242900000E-01  7.8432400000E-01  8.6627900000E-01
            znucl       28.00000    6.00000    8.00000

================================================================================


- Timing analysis has been suppressed with timopt=0



================================================================================

 Suggested references for the acknowledgment of ABINIT usage.

 The users of ABINIT have little formal obligations with respect to the ABINIT group
 (those specified in the GNU General Public License, http://www.gnu.org/copyleft/gpl.txt).
 However, it is common practice in the scientific literature,
 to acknowledge the efforts of people that have made the research possible.
 In this spirit, please find below suggested citations of work written by ABINIT developers,
 corresponding to implementations inside of ABINIT that you have used in the present run.
 Note also that it will be of great value to readers of publications presenting these results,
 to read papers enabling them to understand the theoretical formalism and details
 of the ABINIT implementation.
 For information on why they are suggested, see also https://docs.abinit.org/theory/acknowledgments.
-
- [1] Libxc: A library of exchange and correlation functionals for density functional theory.
- M.A.L. Marques, M.J.T. Oliveira, T. Burnus, Computer Physics Communications 183, 2227 (2012).
- Comment: to be cited when LibXC is used (negative value of ixc)
- Strong suggestion to cite this paper.
- DOI and bibtex: see https://docs.abinit.org/theory/bibliography/#marques2012
-
- [2] The Abinit project: Impact, environment and recent developments.
- Computer Phys. Comm. 248, 107042 (2020).
- X.Gonze, B. Amadon, G. Antonius, F.Arnardi, L.Baguet, J.-M.Beuken,
- J.Bieder, F.Bottin, J.Bouchet, E.Bousquet, N.Brouwer, F.Bruneval,
- G.Brunin, T.Cavignac, J.-B. Charraud, Wei Chen, M.Cote, S.Cottenier,
- J.Denier, G.Geneste, Ph.Ghosez, M.Giantomassi, Y.Gillet, O.Gingras,
- D.R.Hamann, G.Hautier, Xu He, N.Helbig, N.Holzwarth, Y.Jia, F.Jollet,
- W.Lafargue-Dit-Hauret, K.Lejaeghere, M.A.L.Marques, A.Martin, C.Martins,
- H.P.C. Miranda, F.Naccarato, K. Persson, G.Petretto, V.Planes, Y.Pouillon,
- S.Prokhorenko, F.Ricci, G.-M.Rignanese, A.H.Romero, M.M.Schmitt, M.Torrent,
- M.J.van Setten, B.Van Troeye, M.J.Verstraete, G.Zerah and J.W.Zwanzig
- Comment: the fifth generic paper describing the ABINIT project.
- Note that a version of this paper, that is not formatted for Computer Phys. Comm. 
- is available at https://www.abinit.org/sites/default/files/ABINIT20.pdf .
- The licence allows the authors to put it on the Web.
- DOI and bibtex: see https://docs.abinit.org/theory/bibliography/#gonze2020
-
- [3] Optimized norm-conserving Vanderbilt pseudopotentials.
- D.R. Hamann, Phys. Rev. B 88, 085117 (2013).
- Comment: Some pseudopotential generated using the ONCVPSP code were used.
- DOI and bibtex: see https://docs.abinit.org/theory/bibliography/#hamann2013
-
- [4] ABINIT: Overview, and focus on selected capabilities
- J. Chem. Phys. 152, 124102 (2020).
- A. Romero, D.C. Allan, B. Amadon, G. Antonius, T. Applencourt, L.Baguet,
- J.Bieder, F.Bottin, J.Bouchet, E.Bousquet, F.Bruneval,
- G.Brunin, D.Caliste, M.Cote,
- J.Denier, C. Dreyer, Ph.Ghosez, M.Giantomassi, Y.Gillet, O.Gingras,
- D.R.Hamann, G.Hautier, F.Jollet, G. Jomard,
- A.Martin, 
- H.P.C. Miranda, F.Naccarato, G.Petretto, N.A. Pike, V.Planes,
- S.Prokhorenko, T. Rangel, F.Ricci, G.-M.Rignanese, M.Royo, M.Stengel, M.Torrent,
- M.J.van Setten, B.Van Troeye, M.J.Verstraete, J.Wiktor, J.W.Zwanziger, and X.Gonze.
- Comment: a global overview of ABINIT, with focus on selected capabilities .
- Note that a version of this paper, that is not formatted for J. Chem. Phys 
- is available at https://www.abinit.org/sites/default/files/ABINIT20_JPC.pdf .
- The licence allows the authors to put it on the Web.
- DOI and bibtex: see https://docs.abinit.org/theory/bibliography/#romero2020
-
- [5] Recent developments in the ABINIT software package.
- Computer Phys. Comm. 205, 106 (2016).
- X.Gonze, F.Jollet, F.Abreu Araujo, D.Adams, B.Amadon, T.Applencourt,
- C.Audouze, J.-M.Beuken, J.Bieder, A.Bokhanchuk, E.Bousquet, F.Bruneval
- D.Caliste, M.Cote, F.Dahm, F.Da Pieve, M.Delaveau, M.Di Gennaro,
- B.Dorado, C.Espejo, G.Geneste, L.Genovese, A.Gerossier, M.Giantomassi,
- Y.Gillet, D.R.Hamann, L.He, G.Jomard, J.Laflamme Janssen, S.Le Roux,
- A.Levitt, A.Lherbier, F.Liu, I.Lukacevic, A.Martin, C.Martins,
- M.J.T.Oliveira, S.Ponce, Y.Pouillon, T.Rangel, G.-M.Rignanese,
- A.H.Romero, B.Rousseau, O.Rubel, A.A.Shukri, M.Stankovski, M.Torrent,
- M.J.Van Setten, B.Van Troeye, M.J.Verstraete, D.Waroquier, J.Wiktor,
- B.Xu, A.Zhou, J.W.Zwanziger.
- Comment: the fourth generic paper describing the ABINIT project.
- Note that a version of this paper, that is not formatted for Computer Phys. Comm. 
- is available at https://www.abinit.org/sites/default/files/ABINIT16.pdf .
- The licence allows the authors to put it on the Web.
- DOI and bibtex: see https://docs.abinit.org/theory/bibliography/#gonze2016
-
- Proc.   0 individual time (sec): cpu=       1160.2  wall=       1164.1

================================================================================

 Calculation completed.
.Delivered   0 WARNINGs and   0 COMMENTs to log file.
+Overall time at end (sec) : cpu=       9286.2  wall=       9313.9
