---------------------------------------
Begin Slurm Prolog: Dec-08-2022 10:55:45
Job ID:    160510
User ID:   bzhang376
Account:   gts-phanish6
Job name:  AbiNiC2O4
Partition: cpu-small
QOS:       inferno
---------------------------------------
  ABINIT 9.6.2
  
 DeprecationWarning: 

     The files file has been deprecated in Abinit9 and will be removed in Abinit10.
     Use the syntax `abinit t01.abi` where t01.abi is an input with pseudopotentials e.g.

            pseudos = "al.psp8, as.psp8"


  Give name for formatted input file: 
NiC2O4.in
  Give name for formatted output file:
NiC2O4.out
  Give root name for generic input files:
abi
  Give root name for generic output files:
abo
  Give root name for generic temporary files:
tmp

.Version 9.6.2 of ABINIT 
.(MPI version, prepared for a x86_64_linux_gnu10.3 computer) 

.Copyright (C) 1998-2021 ABINIT group . 
 ABINIT comes with ABSOLUTELY NO WARRANTY.
 It is free software, and you are welcome to redistribute it
 under certain conditions (GNU General Public License,
 see ~abinit/COPYING or http://www.gnu.org/copyleft/gpl.txt).

 ABINIT is a project of the Universite Catholique de Louvain,
 Corning Inc. and other collaborators, see ~abinit/doc/developers/contributors.txt .
 Please read https://docs.abinit.org/theory/acknowledgments for suggested
 acknowledgments of the ABINIT effort.
 For more information, see https://www.abinit.org .

.Starting date : Thu  8 Dec 2022.
- ( at 10h55 )
  

 ++++++++++++++++++++++++++++++++++++++++++++++++++++++++++++++++++++++++++++++

 === Build Information === 
  Version       : 9.6.2
  Build target  : x86_64_linux_gnu10.3
  Build date    : 20221111

 === Compiler Suite === 
  C compiler       : gnu10.3
  C++ compiler     : gnu10.3
  Fortran compiler : gnu10.3
  CFLAGS           : -g -O2 -mtune=native -march=native
  CXXFLAGS         : -g -O2 -mtune=native -march=native
  FCFLAGS          : -g -ffree-line-length-none -fallow-argument-mismatch     -I/usr/loc ...
  FC_LDFLAGS       : 

 === Optimizations === 
  Debug level        : basic
  Optimization level : standard
  Architecture       : intel_xeon

 === Multicore === 
  Parallel build : yes
  Parallel I/O   : 
  openMP support : no
  GPU support    : 

 === Connectors / Fallbacks === 
  LINALG flavor  : openblas
  FFT flavor     : fftw3
  HDF5           : yes
  NetCDF         : yes
  NetCDF Fortran : yes
  LibXC          : yes
  Wannier90      : no

 === Experimental features === 
  Exports             : 
  GW double-precision : 

 ++++++++++++++++++++++++++++++++++++++++++++++++++++++++++++++++++++++++++++++


 ++++++++++++++++++++++++++++++++++++++++++++++++++++++++++++++++++++++++++++++
 Default optimizations:
   -O2 -mtune=native -march=native


 Optimizations for 43_ptgroups:
   -O0


 ++++++++++++++++++++++++++++++++++++++++++++++++++++++++++++++++++++++++++++++


 ++++++++++++++++++++++++++++++++++++++++++++++++++++++++++++++++++++++++++++++
 CPP options activated during the build:

                    CC_GNU                   CXX_GNU                    FC_GNU
 
              HAVE_ATOMPAW HAVE_FC_ALLOCATABLE_DT...             HAVE_FC_ASYNC
 
         HAVE_FC_BACKTRACE  HAVE_FC_COMMAND_ARGUMENT      HAVE_FC_COMMAND_LINE
 
        HAVE_FC_CONTIGUOUS           HAVE_FC_CPUTIME              HAVE_FC_EXIT
 
             HAVE_FC_FLUSH             HAVE_FC_GAMMA            HAVE_FC_GETENV
 
   HAVE_FC_IEEE_ARITHMETIC   HAVE_FC_IEEE_EXCEPTIONS          HAVE_FC_INT_QUAD
 
             HAVE_FC_IOMSG     HAVE_FC_ISO_C_BINDING  HAVE_FC_ISO_FORTRAN_2008
 
        HAVE_FC_LONG_LINES        HAVE_FC_MOVE_ALLOC  HAVE_FC_ON_THE_FLY_SHAPE
 
           HAVE_FC_PRIVATE         HAVE_FC_PROTECTED           HAVE_FC_SHIFTLR
 
         HAVE_FC_STREAM_IO            HAVE_FC_SYSTEM                HAVE_FFTW3
 
          HAVE_FORTRAN2003                 HAVE_HDF5        HAVE_LIBPAW_ABINIT
 
      HAVE_LIBTETRA_ABINIT                HAVE_LIBXC         HAVE_LINALG_AXPBY
 
        HAVE_LINALG_GEMM3M                  HAVE_MPI                 HAVE_MPI2
 
       HAVE_MPI_IALLGATHER       HAVE_MPI_IALLREDUCE        HAVE_MPI_IALLTOALL
 
       HAVE_MPI_IALLTOALLV           HAVE_MPI_IBCAST         HAVE_MPI_IGATHERV
 
        HAVE_MPI_INTEGER16               HAVE_MPI_IO HAVE_MPI_TYPE_CREATE_S...
 
               HAVE_NETCDF       HAVE_NETCDF_FORTRAN             HAVE_OS_LINUX
 
         HAVE_TIMER_ABINIT                                                      
 ++++++++++++++++++++++++++++++++++++++++++++++++++++++++++++++++++++++++++++++

- input  file    -> NiC2O4.in
- output file    -> NiC2O4.out
- root for input  files -> abi
- root for output files -> abo

-instrng: 90 lines of input have been read from file NiC2O4.in


 Please give name of formatted atomic psp file (and finish with a newline character)
 For atom type 1, psp file is ../Ni.pot

 Please give name of formatted atomic psp file (and finish with a newline character)
 For atom type 2, psp file is ../C.pot

 Please give name of formatted atomic psp file (and finish with a newline character)
 For atom type 3, psp file is ../O.pot
  read the values zionpsp= 18.0 , pspcod=   8 , lmax=   2
  read the values zionpsp=  4.0 , pspcod=   8 , lmax=   1
  read the values zionpsp=  6.0 , pspcod=   8 , lmax=   1

 inpspheads: deduce mpsang = 3, n1xccc = 0.

======================================================= 
 invars1m : enter jdtset= 0

 symlatt: the Bravais lattice is mP (primitive monoclinic)
  xred   is defined in input file
 ingeo: takes atomic coordinates from input array xred

 symlatt: the Bravais lattice is mP (primitive monoclinic)

 symlatt: the Bravais lattice is mP (primitive monoclinic)

--- !COMMENT
src_file: m_symfind.F90
src_line: 1020
message: |
    The Bravais lattice determined only from the primitive
    vectors, bravais(1)=  2, is more symmetric
    than the real one, iholohedry=  1, obtained by taking into
    account the atomic positions. Start deforming the primitive vector set.
...


 symlatt: the Bravais lattice is aP (primitive triclinic)
 symspgr: spgroup=   1  P1   (=C1^1)
 initocc_chkneu: initialized the occupation numbers for occopt= 3
    spin up   values:
 getmpw sequential formula gave: 45973

 ====================================================================================================
 Searching for all possible proc distributions for this input with #CPUs<=12:

 ~~~~~~~~~~~~~~~~~~~~~~~~~~~~~~~~~~~~~~~~~~~~~~~~~~~~~~~~~~~~~~~~~~~~~~~~~~~~~
 |       np_spkpt|       npfft|      npband|      bandpp|  #MPI(proc)|    WEIGHT|
 |    1<<    8|    1<<   12|    1<<   12|    1<<   65|    1<<   12|  <=    12|
 ~~~~~~~~~~~~~~~~~~~~~~~~~~~~~~~~~~~~~~~~~~~~~~~~~~~~~~~~~~~~~~~~~~~~~~~~~~~~~
 |           8|           1|           1|           1|           8|     7.767|
 |           4|           3|           1|           1|          12|     7.444|
 |           6|           2|           1|           1|          12|     7.100|
 |           1|           2|           5|           1|          10|     6.684|
 |           5|           2|           1|           1|          10|     6.574|
 |           3|           4|           1|           1|          12|     6.225|
 |           4|           2|           1|           1|           8|     5.917|
 |           2|           6|           1|           1|          12|     5.123|
 |           2|           1|           5|           1|          10|     5.002|
 |           3|           3|           1|           1|           9|     4.841|
 ~~~~~~~~~~~~~~~~~~~~~~~~~~~~~~~~~~~~~~~~~~~~~~~~~~~~~~~~~~~~~~~~~~~~~~~~~~~~~
 Only the best possible choices for nproc are printed...

 >>> Possible (best) choices for the number of bands (nband) are:
     with: np_spkpt=8 npfft=1
     nband=    64 using      8 CPUs =     8 MPI x  1 threads (npband=    1)
     nband=    66 using      8 CPUs =     8 MPI x  1 threads (npband=    1)
     nband=    65 using      8 CPUs =     8 MPI x  1 threads (npband=    1)
 >>> The present nband value (    65) seems to be the best choice!
 ====================================================================================================


 For input ecut=  1.000000E+02 best grid ngfft=      96      90     108
       max ecut=  1.081466E+02

 ==== FFT mesh ====
  FFT mesh divisions ........................    96   90  108
  Augmented FFT divisions ...................    97   91  108
  FFT algorithm .............................   312
  FFT cache size ............................    16
 getmpw: optimal value of mpw= 45973

 Symmetries : space group P1 (#  1); Bravais aP (primitive triclinic)

 getdim_nloc : deduce lmnmax  =  18, lnmax  =   6,
                      lmnmaxso=  18, lnmaxso=   6.
memory: analysis of memory needs
================================================================================
 Values of the parameters that define the memory need of the present run
     intxc =       0    ionmov =       0      iscf =       7    lmnmax =       6
     lnmax =       6     mgfft =     108  mpssoang =       3    mqgrid =    4447
     natom =      14  nloc_mem =       1    nspden =       2   nspinor =       1
    nsppol =       2      nsym =       1    n1xccc =       0    ntypat =       3
    occopt =       3   xclevel =       2
-    mband =          65        mffmem =           1         mkmem =           1
       mpw =       45973          nfft =      933120          nkpt =           4
================================================================================
P This job should need less than                     550.279 Mbytes of memory.
  Rough estimation (10% accuracy) of disk space for files :
_ WF disk file :    364.778 Mbytes ; DEN or POT disk file :     14.240 Mbytes.
================================================================================

 Biggest array : f_fftgr(disk), with    227.8145 MBytes.
 memana : allocated an array of    227.815 Mbytes, for testing purposes.
 memana: allocated     550.279Mbytes, for testing purposes. 
 The job will continue.
--------------------------------------------------------------------------------
------------- Echo of variables that govern the present computation ------------
--------------------------------------------------------------------------------
-
- outvars: echo of selected default values                                      
-   iomode0 =  0 , fftalg0 =312 , wfoptalg0 =  0
-
- outvars: echo of global parameters not present in the input file              
-  max_nthreads =    0
-
 -outvars: echo values of preprocessed input variables --------
 
 These variables are accessible in NetCDF format (abo_OUT.nc)

            acell      1.0000000000E+00  1.0000000000E+00  1.0000000000E+00 Bohr
              amu      5.86900000E+01  1.20110000E+01  1.59994000E+01
        autoparal           1
           diemac      1.00000000E+00
           diemix      4.00000000E-01
             ecut      1.00000000E+02 Hartree
           ecutsm      5.00000000E-01 Hartree
-          fftalg         312
              ixc     -263267
              kpt      2.50000000E-01  2.50000000E-01  2.50000000E-01
                      -2.50000000E-01  2.50000000E-01  2.50000000E-01
                       2.50000000E-01 -2.50000000E-01  2.50000000E-01
                      -2.50000000E-01 -2.50000000E-01  2.50000000E-01
         kptrlatt        2    0    0      0    2    0      0    0    2
          kptrlen      1.92252067E+01
P           mkmem           1
            natom          14
            nband          65
            ngfft          96      90     108
             nkpt           4
-        np_spkpt           8
           nspden           2
           nsppol           2
            nstep          60
             nsym           1
           ntypat           3
              occ      1.000000  1.000000  1.000000  1.000000  1.000000  1.000000
                       1.000000  1.000000  1.000000  1.000000  1.000000  1.000000
                       1.000000  1.000000  1.000000  1.000000  1.000000  1.000000
                       1.000000  1.000000  1.000000  1.000000  1.000000  1.000000
                       1.000000  1.000000  1.000000  1.000000  1.000000  1.000000
                       1.000000  1.000000  1.000000  1.000000  1.000000  1.000000
                       1.000000  1.000000  1.000000  1.000000  1.000000  1.000000
                       1.000000  1.000000  1.000000  1.000000  1.000000  1.000000
                       1.000000  1.000000  0.000000  0.000000  0.000000  0.000000
                       0.000000  0.000000  0.000000  0.000000  0.000000  0.000000
                       0.000000  0.000000  0.000000  0.000000  0.000000
                       1.000000  1.000000  1.000000  1.000000  1.000000  1.000000
                       1.000000  1.000000  1.000000  1.000000  1.000000  1.000000
                       1.000000  1.000000  1.000000  1.000000  1.000000  1.000000
                       1.000000  1.000000  1.000000  1.000000  1.000000  1.000000
                       1.000000  1.000000  1.000000  1.000000  1.000000  1.000000
                       1.000000  1.000000  1.000000  1.000000  1.000000  1.000000
                       1.000000  1.000000  1.000000  1.000000  1.000000  1.000000
                       1.000000  1.000000  1.000000  1.000000  1.000000  1.000000
                       1.000000  1.000000  0.000000  0.000000  0.000000  0.000000
                       0.000000  0.000000  0.000000  0.000000  0.000000  0.000000
                       0.000000  0.000000  0.000000  0.000000  0.000000
                       1.000000  1.000000  1.000000  1.000000  1.000000  1.000000
                       1.000000  1.000000  1.000000  1.000000  1.000000  1.000000
                       1.000000  1.000000  1.000000  1.000000  1.000000  1.000000
                       1.000000  1.000000  1.000000  1.000000  1.000000  1.000000
                       1.000000  1.000000  1.000000  1.000000  1.000000  1.000000
                       1.000000  1.000000  1.000000  1.000000  1.000000  1.000000
                       1.000000  1.000000  1.000000  1.000000  1.000000  1.000000
                       1.000000  1.000000  1.000000  1.000000  1.000000  1.000000
                       1.000000  1.000000  0.000000  0.000000  0.000000  0.000000
                       0.000000  0.000000  0.000000  0.000000  0.000000  0.000000
                       0.000000  0.000000  0.000000  0.000000  0.000000
                       1.000000  1.000000  1.000000  1.000000  1.000000  1.000000
                       1.000000  1.000000  1.000000  1.000000  1.000000  1.000000
                       1.000000  1.000000  1.000000  1.000000  1.000000  1.000000
                       1.000000  1.000000  1.000000  1.000000  1.000000  1.000000
                       1.000000  1.000000  1.000000  1.000000  1.000000  1.000000
                       1.000000  1.000000  1.000000  1.000000  1.000000  1.000000
                       1.000000  1.000000  1.000000  1.000000  1.000000  1.000000
                       1.000000  1.000000  1.000000  1.000000  1.000000  1.000000
                       1.000000  1.000000  0.000000  0.000000  0.000000  0.000000
                       0.000000  0.000000  0.000000  0.000000  0.000000  0.000000
                       0.000000  0.000000  0.000000  0.000000  0.000000
                       1.000000  1.000000  1.000000  1.000000  1.000000  1.000000
                       1.000000  1.000000  1.000000  1.000000  1.000000  1.000000
                       1.000000  1.000000  1.000000  1.000000  1.000000  1.000000
                       1.000000  1.000000  1.000000  1.000000  1.000000  1.000000
                       1.000000  1.000000  1.000000  1.000000  1.000000  1.000000
                       1.000000  1.000000  1.000000  1.000000  1.000000  1.000000
                       1.000000  1.000000  1.000000  1.000000  1.000000  1.000000
                       1.000000  1.000000  1.000000  1.000000  1.000000  1.000000
                       1.000000  1.000000  0.000000  0.000000  0.000000  0.000000
                       0.000000  0.000000  0.000000  0.000000  0.000000  0.000000
                       0.000000  0.000000  0.000000  0.000000  0.000000
                       1.000000  1.000000  1.000000  1.000000  1.000000  1.000000
                       1.000000  1.000000  1.000000  1.000000  1.000000  1.000000
                       1.000000  1.000000  1.000000  1.000000  1.000000  1.000000
                       1.000000  1.000000  1.000000  1.000000  1.000000  1.000000
                       1.000000  1.000000  1.000000  1.000000  1.000000  1.000000
                       1.000000  1.000000  1.000000  1.000000  1.000000  1.000000
                       1.000000  1.000000  1.000000  1.000000  1.000000  1.000000
                       1.000000  1.000000  1.000000  1.000000  1.000000  1.000000
                       1.000000  1.000000  0.000000  0.000000  0.000000  0.000000
                       0.000000  0.000000  0.000000  0.000000  0.000000  0.000000
                       0.000000  0.000000  0.000000  0.000000  0.000000
                       1.000000  1.000000  1.000000  1.000000  1.000000  1.000000
                       1.000000  1.000000  1.000000  1.000000  1.000000  1.000000
                       1.000000  1.000000  1.000000  1.000000  1.000000  1.000000
                       1.000000  1.000000  1.000000  1.000000  1.000000  1.000000
                       1.000000  1.000000  1.000000  1.000000  1.000000  1.000000
                       1.000000  1.000000  1.000000  1.000000  1.000000  1.000000
                       1.000000  1.000000  1.000000  1.000000  1.000000  1.000000
                       1.000000  1.000000  1.000000  1.000000  1.000000  1.000000
                       1.000000  1.000000  0.000000  0.000000  0.000000  0.000000
                       0.000000  0.000000  0.000000  0.000000  0.000000  0.000000
                       0.000000  0.000000  0.000000  0.000000  0.000000
                       1.000000  1.000000  1.000000  1.000000  1.000000  1.000000
                       1.000000  1.000000  1.000000  1.000000  1.000000  1.000000
                       1.000000  1.000000  1.000000  1.000000  1.000000  1.000000
                       1.000000  1.000000  1.000000  1.000000  1.000000  1.000000
                       1.000000  1.000000  1.000000  1.000000  1.000000  1.000000
                       1.000000  1.000000  1.000000  1.000000  1.000000  1.000000
                       1.000000  1.000000  1.000000  1.000000  1.000000  1.000000
                       1.000000  1.000000  1.000000  1.000000  1.000000  1.000000
                       1.000000  1.000000  0.000000  0.000000  0.000000  0.000000
                       0.000000  0.000000  0.000000  0.000000  0.000000  0.000000
                       0.000000  0.000000  0.000000  0.000000  0.000000
           occopt           3
           prtden           0
           prteig           0
          prtkden           1
            prtwf           0
            rprim      0.0000000000E+00  1.0137047334E+01  0.0000000000E+00
                       9.6126033568E+00  0.0000000000E+00  0.0000000000E+00
                       0.0000000000E+00 -5.7455806104E+00 -9.8776109362E+00
           shiftk      5.00000000E-01  5.00000000E-01  5.00000000E-01
          spgroup           1
           spinat      0.0000000000E+00  0.0000000000E+00  1.0000000000E+00
                       0.0000000000E+00  0.0000000000E+00  1.0000000000E+00
                       0.0000000000E+00  0.0000000000E+00  1.0000000000E+00
                       0.0000000000E+00  0.0000000000E+00  1.0000000000E+00
                       0.0000000000E+00  0.0000000000E+00  1.0000000000E+00
                       0.0000000000E+00  0.0000000000E+00  1.0000000000E+00
                       0.0000000000E+00  0.0000000000E+00  1.0000000000E+00
                       0.0000000000E+00  0.0000000000E+00  1.0000000000E+00
                       0.0000000000E+00  0.0000000000E+00  1.0000000000E+00
                       0.0000000000E+00  0.0000000000E+00  1.0000000000E+00
                       0.0000000000E+00  0.0000000000E+00  1.0000000000E+00
                       0.0000000000E+00  0.0000000000E+00  1.0000000000E+00
                       0.0000000000E+00  0.0000000000E+00  1.0000000000E+00
                       0.0000000000E+00  0.0000000000E+00  1.0000000000E+00
           toldfe      1.00000000E-06 Hartree
           tsmear      1.00000000E-03 Hartree
            typat      1  1  2  2  2  2  3  3  3  3  3  3  3  3
          usekden           1
              wtk        0.25000    0.25000    0.25000    0.25000
           xangst      2.5433853058E+00 -1.5202151546E+00 -2.6135032914E+00
                       0.0000000000E+00  0.0000000000E+00  0.0000000000E+00
                       3.1562750365E+00  1.1910186627E+00 -2.1474058874E+00
                       6.1288973068E-01  2.6530605942E+00 -4.6609740399E-01
                       1.9304955751E+00  1.1328454397E+00 -3.0796006954E+00
                       4.4738808809E+00 -3.2919649184E-01 -4.7609091788E+00
                       1.4881550895E+00  2.2345712582E+00 -3.5468271328E+00
                       4.0315403953E+00 -1.4309223104E+00 -4.2936827414E+00
                       3.5986155221E+00  8.9292844179E-02 -1.6801794500E+00
                       1.0552302163E+00  3.7547864128E+00 -9.3332384141E-01
                       3.6404796442E+00  2.3325325213E+00 -1.9145427441E+00
                       1.0970943384E+00  1.5115467357E+00 -6.9896054726E-01
                       1.4462909674E+00 -8.6684189171E-03 -3.3124638386E+00
                       3.9896762732E+00  8.1231736673E-01 -4.5280460355E+00
            xcart      4.8063016784E+00 -2.8727903052E+00 -4.9388054681E+00
                       0.0000000000E+00  0.0000000000E+00  0.0000000000E+00
                       5.9644954190E+00  2.2506990917E+00 -4.0580090233E+00
                       1.1581937406E+00  5.0135579370E+00 -8.8079644479E-01
                       3.6481079377E+00  2.1407676318E+00 -5.8196019129E+00
                       8.4544096161E+00 -6.2209121348E-01 -8.9968144914E+00
                       2.8122055624E+00  4.2227277024E+00 -6.7025319217E+00
                       7.6185072408E+00 -2.7040512841E+00 -8.1138844827E+00
                       6.8003977943E+00  1.6873902112E-01 -3.1750790146E+00
                       1.9940961159E+00  7.0955180076E+00 -1.7637264536E+00
                       6.8795095200E+00  4.4078476613E+00 -3.6179614561E+00
                       2.0732078416E+00  2.8564093675E+00 -1.3208440120E+00
                       2.7330938368E+00 -1.6380937759E-02 -6.2596494801E+00
                       7.5393955152E+00  1.5350573561E+00 -8.5567669242E+00
             xred     -5.0809124433E-18  5.0000000000E-01  5.0000000000E-01
                       0.0000000000E+00  0.0000000000E+00  0.0000000000E+00
                       4.5488100000E-01  6.2048700000E-01  4.1082900000E-01
                       5.4511900000E-01  1.2048700000E-01  8.9171000000E-02
                       5.4511900000E-01  3.7951300000E-01  5.8917100000E-01
                       4.5488100000E-01  8.7951300000E-01  9.1082900000E-01
                       8.0116400000E-01  2.9255400000E-01  6.7855800000E-01
                       1.9883600000E-01  7.9255400000E-01  8.2144200000E-01
                       1.9883600000E-01  7.0744600000E-01  3.2144200000E-01
                       8.0116400000E-01  2.0744600000E-01  1.7855800000E-01
                       6.4242900000E-01  7.1567600000E-01  3.6627900000E-01
                       3.5757100000E-01  2.1567600000E-01  1.3372100000E-01
                       3.5757100000E-01  2.8432400000E-01  6.3372100000E-01
                       6.4242900000E-01  7.8432400000E-01  8.6627900000E-01
            znucl       28.00000    6.00000    8.00000

================================================================================

 chkinp: Checking input parameters for consistency.
 DATA TYPE INFORMATION: 
 REAL:      Data type name: REAL(DP) 
            Kind value:      8
            Precision:      15
            Smallest nonnegligible quantity relative to 1: 0.22204460E-015
            Smallest positive number:                      0.22250739E-307
            Largest representable number:                  0.17976931E+309
 INTEGER:   Data type name: INTEGER(default) 
            Kind value: 4
            Bit size:   32
            Largest representable number: 2147483647
 LOGICAL:   Data type name: LOGICAL 
            Kind value: 4
 CHARACTER: Data type name: CHARACTER             Kind value: 1

  ==== OpenMP parallelism is OFF ====
 
  ==== Using MPI-2 specifications ==== 
  MPI-IO support is ON
  xmpi_tag_ub ................    268435455
  xmpi_bsize_ch ..............            1
  xmpi_bsize_int .............            4
  xmpi_bsize_sp ..............            4
  xmpi_bsize_dp ..............            8
  xmpi_bsize_spc .............            8
  xmpi_bsize_dpc .............           16
  xmpio_bsize_frm ............            4
  xmpi_address_kind ..........            8
  xmpi_offset_kind ...........            8
  MPI_WTICK ..................    1.0000000000000001E-009

================================================================================
== DATASET  1 ==================================================================
-   mpi_nproc: 8, omp_nthreads: -1 (-1 if OMP is not activated)


--- !COMMENT
src_file: m_xgScalapack.F90
src_line: 236
message: |
    xgScalapack in auto mode
...


 getdim_nloc : deduce lmnmax  =  18, lnmax  =   6,
                      lmnmaxso=  18, lnmaxso=   6.
 SCAN exchange of Sun, Ruzsinszky, and Perdew
 J. Sun, A. Ruzsinszky, and J. P. Perdew, Phys. Rev. Lett. 115, 036402 (2015)
 SCAN correlation of Sun, Ruzsinszky, and Perdew
 J. Sun, A. Ruzsinszky, and J. P. Perdew, Phys. Rev. Lett. 115, 036402 (2015)

 Unit cell volume ucvol=  9.6250814E+02 bohr^3
 Angles (23,13,12)=  9.00000000E+01  1.20185586E+02  9.00000000E+01 degrees

 getcut: wavevector=  0.0000  0.0000  0.0000  ngfft=  96  90 108
         ecut(hartree)=    100.000   => boxcut(ratio)=   2.07987
- pspini: atom type   1  psp file is ../Ni.pot
- pspatm: opening atomic psp file    ../Ni.pot
- Ni    ONCVPSP-4.0.1  r_core=   2.18101   2.18101   2.24723
- 28.00000  18.00000    200312                znucl, zion, pspdat
    8   11    2    4       600   0.00000      pspcod,pspxc,lmax,lloc,mmax,r2well

--- !WARNING
src_file: m_pspini.F90
src_line: 1039
message: |
    Pseudopotential file pspxc: 11, not equal to input ixc: -263267.
    These parameters must agree to get the same xc in ABINIT code as in psp construction.
    Action: check psp design or input file.
    Assume experienced user. Execution will continue.
...

    5.99000000000000    0.00000000000000    0.00000000000000   rchrg,fchrg,qchrg
     nproj     2     2     2
     extension_switch     1
  valence charge integrates to:    17.968162128216466     
  pspatm : epsatm=   38.47316822
         --- l  ekb(1:nproj) -->
             0   -3.440917   -0.196078
             1   -5.406223   -1.725842
             2   -7.274254   -2.503385
 pspatm: atomic psp has been read  and splines computed

- pspini: atom type   2  psp file is ../C.pot
- pspatm: opening atomic psp file    ../C.pot
- C     ONCVPSP-4.0.1  r_core=   1.42727   1.38521
-  6.00000   4.00000    200312                znucl, zion, pspdat
    8   11    1    4       600   0.00000      pspcod,pspxc,lmax,lloc,mmax,r2well

--- !WARNING
src_file: m_pspini.F90
src_line: 1039
message: |
    Pseudopotential file pspxc: 11, not equal to input ixc: -263267.
    These parameters must agree to get the same xc in ABINIT code as in psp construction.
    Action: check psp design or input file.
    Assume experienced user. Execution will continue.
...

    5.99000000000000    0.00000000000000    0.00000000000000   rchrg,fchrg,qchrg
     nproj     2     2
     extension_switch     1
  valence charge integrates to:    3.9929454931231523     
  pspatm : epsatm=    2.26998732
         --- l  ekb(1:nproj) -->
             0    7.571912    0.889574
             1   -3.169338   -0.856835
 pspatm: atomic psp has been read  and splines computed

- pspini: atom type   3  psp file is ../O.pot
- pspatm: opening atomic psp file    ../O.pot
- O     ONCVPSP-4.0.1  r_core=   1.28926   1.47061
-  8.00000   6.00000    200312                znucl, zion, pspdat
    8   11    1    4       600   0.00000      pspcod,pspxc,lmax,lloc,mmax,r2well

--- !WARNING
src_file: m_pspini.F90
src_line: 1039
message: |
    Pseudopotential file pspxc: 11, not equal to input ixc: -263267.
    These parameters must agree to get the same xc in ABINIT code as in psp construction.
    Action: check psp design or input file.
    Assume experienced user. Execution will continue.
...

    5.99000000000000    0.00000000000000    0.00000000000000   rchrg,fchrg,qchrg
     nproj     2     2
     extension_switch     1
  valence charge integrates to:    5.9990318584788609     
  pspatm : epsatm=    3.44365635
         --- l  ekb(1:nproj) -->
             0    9.802940    1.339963
             1   -3.661294   -1.085684
 pspatm: atomic psp has been read  and splines computed

   1.13575537E+04                                ecore*ucvol(ha*bohr**3)
 ==== Info on pseudopotentials ====
  Norm-conserving pseudopotentials
  Number of pseudopotentials ..    3
  Number of types of atoms   ..    3
  Scalar calculation (no spin-orbit term)
  Nonlocal part applied using Legendre polynomials
  Max number of non-local projectors over l and type   2
  Highest angular momentum +1 .......   3
  Max number of (l,n)   components ..   6
  Max number of (l,m,n) components ..   6

 Info on the Q-grid used for form factors in spline form: 
   Number of q-points for radial functions ffspl ..   4447
   Number of q-points for vlspl ...................   4447
   vloc is computed in Reciprocal Space
   model core charge treated in real-space

  XC functional for type 1 is 11
  Pseudo valence available: yes
  XC functional for type 2 is 11
  Pseudo valence available: yes
  XC functional for type 3 is 11
  Pseudo valence available: yes

 newkpt: spin channel isppol2 =     1
 wfconv:    65 bands initialized randomly with npw= 45968, for ikpt=     1
 newkpt: spin channel isppol2 =     2
_setup2: Arith. and geom. avg. npw (full set) are   45970.500   45970.500
 initro: for itypat=  1, take pseudo charge density from pp file
 initro: for itypat=  2, take pseudo charge density from pp file
 initro: for itypat=  3, take pseudo charge density from pp file

================================================================================

 getcut: wavevector=  0.0000  0.0000  0.0000  ngfft=  96  90 108
         ecut(hartree)=    100.000   => boxcut(ratio)=   2.07987

 1/G**2 cut-off applied in the following step : cutoff-mode = CRYSTAL

 1/G**2 cut-off applied in the following step : cutoff-mode = CRYSTAL

 1/G**2 cut-off applied in the following step : cutoff-mode = CRYSTAL

 ITER STEP NUMBER     1
 Max number of non-self-consistent loops: 2
 newocc: new Fermi energy is       0.100264 , with nelect=    100.000000, Number of bisection calls: 44
 mkrho: echo density (plane-wave part only)
 Total charge density [el/Bohr^3]
      Maximum=    3.0566E+00  at reduced coord.    0.9375    0.0000    0.9907
      Minimum=    1.6836E-03  at reduced coord.    0.0000    0.5222    0.9815
   Integrated=    1.0000E+02
 Spin up density      [el/Bohr^3]
      Maximum=    1.5461E+00  at reduced coord.    0.0625    0.0000    0.0093
      Minimum=    7.8794E-04  at reduced coord.    0.0000    0.5222    0.9815
   Integrated=    5.0823E+01
 Spin down density    [el/Bohr^3]
      Maximum=    1.5154E+00  at reduced coord.    0.0104    0.0556    0.0185
      Minimum=    8.9411E-04  at reduced coord.    0.0000    0.5333    0.9815
   Integrated=    4.9177E+01
 Magnetization (spin up - spin down) [el/Bohr^3]
      Maximum=    2.3483E-01  at reduced coord.    0.0313    0.9556    0.9630
      Minimum=   -3.7155E-03  at reduced coord.    0.9792    0.6222    0.4722
   Integrated=    1.6451E+00
 Relative magnetization (=zeta, between -1 and 1)
      Maximum=    1.6725E-01  at reduced coord.    0.9479    0.0778    0.0648
      Minimum=   -9.9197E-02  at reduced coord.    0.9375    0.7333    0.8889
 mkrho: echo density (plane-wave part only)
 Total kinetic energy density [Ha/Bohr^3]
      Maximum=    1.9875E+01  at reduced coord.    0.0104    0.0000    0.0185
      Minimum=    1.1709E-03  at reduced coord.    0.9896    0.0111    0.5093
   Integrated=    2.4324E+02
 Spin up density      [Ha/Bohr^3]
      Maximum=    1.0086E+01  at reduced coord.    0.0104    0.5111    0.5185
      Minimum=    5.6445E-04  at reduced coord.    0.9896    0.0111    0.5093
   Integrated=    1.2612E+02
 Spin down density    [Ha/Bohr^3]
      Maximum=    9.8412E+00  at reduced coord.    0.0104    0.9889    0.0093
      Minimum=    6.0109E-04  at reduced coord.    0.9896    0.4778    0.0185
   Integrated=    1.1712E+02
 Magnetization (spin up - spin down) [Ha/Bohr^3]
      Maximum=    1.0299E+00  at reduced coord.    0.9583    0.0000    0.0093
      Minimum=   -4.7708E-04  at reduced coord.    0.8542    0.8333    0.8241
   Integrated=    8.9929E+00
 Relative magnetization (=zeta, between -1 and 1)
      Maximum=    1.4070E-01  at reduced coord.    0.9167    0.1111    0.0926
      Minimum=   -5.7992E-02  at reduced coord.    0.8854    0.9667    0.5556
 Total charge density [el/Bohr^3]
      Maximum=    3.0566E+00  at reduced coord.    0.9375    0.0000    0.9907
      Minimum=    1.6836E-03  at reduced coord.    0.0000    0.5222    0.9815
   Integrated=    1.0000E+02
 Spin up density      [el/Bohr^3]
      Maximum=    1.5461E+00  at reduced coord.    0.0625    0.0000    0.0093
      Minimum=    7.8794E-04  at reduced coord.    0.0000    0.5222    0.9815
   Integrated=    5.0823E+01
 Spin down density    [el/Bohr^3]
      Maximum=    1.5154E+00  at reduced coord.    0.0104    0.0556    0.0185
      Minimum=    8.9411E-04  at reduced coord.    0.0000    0.5333    0.9815
   Integrated=    4.9177E+01
 Magnetization (spin up - spin down) [el/Bohr^3]
      Maximum=    2.3483E-01  at reduced coord.    0.0313    0.9556    0.9630
      Minimum=   -3.7155E-03  at reduced coord.    0.9792    0.6222    0.4722
   Integrated=    1.6451E+00
 Relative magnetization (=zeta, between -1 and 1)
      Maximum=    1.6725E-01  at reduced coord.    0.9479    0.0778    0.0648
      Minimum=   -9.9197E-02  at reduced coord.    0.9375    0.7333    0.8889

 1/G**2 cut-off applied in the following step : cutoff-mode = CRYSTAL
 ETOT  1  -457.45896110049    -4.57E+02 2.34E-01 4.47E+04 1.645
 scprqt: <Vxc>= -4.0215157E-01 hartree

 Simple mixing update:
  residual square of the potential:    7145.3074120074361
{SCF_istep: 1 , Vnl|psi>: 650 , wall_time: ' 01:51 [minutes] '} <<< TIME

 ITER STEP NUMBER     2
 Max number of non-self-consistent loops: 2
 newocc: new Fermi energy is       0.089048 , with nelect=    100.000000, Number of bisection calls: 46
 mkrho: echo density (plane-wave part only)
 Total charge density [el/Bohr^3]
      Maximum=    3.0777E+00  at reduced coord.    0.9479    0.4889    0.5093
      Minimum=    1.4223E-03  at reduced coord.    0.0000    0.5000    0.0000
   Integrated=    1.0000E+02
 Spin up density      [el/Bohr^3]
      Maximum=    1.5722E+00  at reduced coord.    0.0625    0.4778    0.5185
      Minimum=    6.5196E-04  at reduced coord.    0.0000    0.0000    0.5000
   Integrated=    5.1011E+01
 Spin down density    [el/Bohr^3]
      Maximum=    1.5357E+00  at reduced coord.    0.9375    0.4778    0.4815
      Minimum=    7.6928E-04  at reduced coord.    0.0000    0.5000    0.0000
   Integrated=    4.8989E+01
 Magnetization (spin up - spin down) [el/Bohr^3]
      Maximum=    2.8234E-01  at reduced coord.    0.0313    0.9667    0.9630
      Minimum=   -3.1633E-03  at reduced coord.    0.0000    0.0000    0.0000
   Integrated=    2.0214E+00
 Relative magnetization (=zeta, between -1 and 1)
      Maximum=    1.7687E-01  at reduced coord.    0.9479    0.0556    0.0556
      Minimum=   -8.3657E-02  at reduced coord.    0.0000    0.0111    0.5000
 mkrho: echo density (plane-wave part only)
 Total kinetic energy density [Ha/Bohr^3]
      Maximum=    2.0352E+01  at reduced coord.    0.9896    0.4778    0.4907
      Minimum=    1.0057E-03  at reduced coord.    0.0000    0.0000    0.5000
   Integrated=    2.3766E+02
 Spin up density      [Ha/Bohr^3]
      Maximum=    1.0291E+01  at reduced coord.    0.0104    0.4778    0.5185
      Minimum=    4.7349E-04  at reduced coord.    0.0000    0.0000    0.5000
   Integrated=    1.2332E+02
 Spin down density    [Ha/Bohr^3]
      Maximum=    1.0096E+01  at reduced coord.    0.9896    0.4889    0.4815
      Minimum=    5.3218E-04  at reduced coord.    0.0000    0.0000    0.5000
   Integrated=    1.1434E+02
 Magnetization (spin up - spin down) [Ha/Bohr^3]
      Maximum=    1.2331E+00  at reduced coord.    0.0000    0.0111    0.9537
      Minimum=   -8.3482E-02  at reduced coord.    0.9688    0.0444    0.0370
   Integrated=    8.9882E+00
 Relative magnetization (=zeta, between -1 and 1)
      Maximum=    1.8297E-01  at reduced coord.    0.1042    0.9111    0.9167
      Minimum=   -6.4952E-02  at reduced coord.    0.0417    0.9889    0.4722
 Total charge density [el/Bohr^3]
      Maximum=    3.0777E+00  at reduced coord.    0.9479    0.4889    0.5093
      Minimum=    1.4223E-03  at reduced coord.    0.0000    0.5000    0.0000
   Integrated=    1.0000E+02
 Spin up density      [el/Bohr^3]
      Maximum=    1.5722E+00  at reduced coord.    0.0625    0.4778    0.5185
      Minimum=    6.5196E-04  at reduced coord.    0.0000    0.0000    0.5000
   Integrated=    5.1011E+01
 Spin down density    [el/Bohr^3]
      Maximum=    1.5357E+00  at reduced coord.    0.9375    0.4778    0.4815
      Minimum=    7.6928E-04  at reduced coord.    0.0000    0.5000    0.0000
   Integrated=    4.8989E+01
 Magnetization (spin up - spin down) [el/Bohr^3]
      Maximum=    2.8234E-01  at reduced coord.    0.0313    0.9667    0.9630
      Minimum=   -3.1633E-03  at reduced coord.    0.0000    0.0000    0.0000
   Integrated=    2.0214E+00
 Relative magnetization (=zeta, between -1 and 1)
      Maximum=    1.7687E-01  at reduced coord.    0.9479    0.0556    0.0556
      Minimum=   -8.3657E-02  at reduced coord.    0.0000    0.0111    0.5000
 ETOT  2  -458.28528041965    -8.26E-01 1.11E-02 8.02E+04 2.021
 scprqt: <Vxc>= -4.0863045E-01 hartree

 Pulay update with  1 previous iterations:
 mixing of old trial potential: alpha(m:m-4)=  0.389      0.611
{SCF_istep: 2 , Vnl|psi>: 650 , wall_time: ' 01:49 [minutes] '} <<< TIME

 ITER STEP NUMBER     3
 newocc: new Fermi energy is       0.118797 , with nelect=    100.000000, Number of bisection calls: 41
 mkrho: echo density (plane-wave part only)
 Total charge density [el/Bohr^3]
      Maximum=    3.0706E+00  at reduced coord.    0.0521    0.0000    0.9907
      Minimum=    1.3521E-03  at reduced coord.    0.0000    0.0000    0.5000
   Integrated=    1.0000E+02
 Spin up density      [el/Bohr^3]
      Maximum=    1.5690E+00  at reduced coord.    0.9479    0.9556    0.9815
      Minimum=    6.2608E-04  at reduced coord.    0.0000    0.0000    0.5000
   Integrated=    5.0999E+01
 Spin down density    [el/Bohr^3]
      Maximum=    1.5309E+00  at reduced coord.    0.0521    0.0000    0.9907
      Minimum=    7.2603E-04  at reduced coord.    0.0000    0.0000    0.5000
   Integrated=    4.9001E+01
 Magnetization (spin up - spin down) [el/Bohr^3]
      Maximum=    4.5757E-01  at reduced coord.    0.0313    0.5556    0.5556
      Minimum=   -7.0456E-03  at reduced coord.    0.9375    0.5889    0.4815
   Integrated=    1.9988E+00
 Relative magnetization (=zeta, between -1 and 1)
      Maximum=    3.7330E-01  at reduced coord.    0.9271    0.4000    0.3889
      Minimum=   -7.3971E-02  at reduced coord.    0.9896    0.0333    0.5185
 mkrho: echo density (plane-wave part only)
 Total kinetic energy density [Ha/Bohr^3]
      Maximum=    2.0207E+01  at reduced coord.    0.9896    0.0222    0.9815
      Minimum=    9.6970E-04  at reduced coord.    0.9896    0.0111    0.5093
   Integrated=    2.3517E+02
 Spin up density      [Ha/Bohr^3]
      Maximum=    1.0187E+01  at reduced coord.    0.0000    0.0222    0.0093
      Minimum=    4.5454E-04  at reduced coord.    0.0000    0.0000    0.5000
   Integrated=    1.2276E+02
 Spin down density    [Ha/Bohr^3]
      Maximum=    1.0080E+01  at reduced coord.    0.9896    0.0111    0.9815
      Minimum=    5.1433E-04  at reduced coord.    0.9896    0.0111    0.5093
   Integrated=    1.1241E+02
 Magnetization (spin up - spin down) [Ha/Bohr^3]
      Maximum=    1.7879E+00  at reduced coord.    0.0000    0.5111    0.5463
      Minimum=   -1.4006E-01  at reduced coord.    0.0313    0.9556    0.9630
   Integrated=    1.0351E+01
 Relative magnetization (=zeta, between -1 and 1)
      Maximum=    2.5946E-01  at reduced coord.    0.8958    0.3667    0.3426
      Minimum=   -6.3534E-02  at reduced coord.    0.0000    0.0000    0.5000
 Total charge density [el/Bohr^3]
      Maximum=    3.0706E+00  at reduced coord.    0.0521    0.0000    0.9907
      Minimum=    1.3521E-03  at reduced coord.    0.0000    0.0000    0.5000
   Integrated=    1.0000E+02
 Spin up density      [el/Bohr^3]
      Maximum=    1.5690E+00  at reduced coord.    0.9479    0.9556    0.9815
      Minimum=    6.2608E-04  at reduced coord.    0.0000    0.0000    0.5000
   Integrated=    5.0999E+01
 Spin down density    [el/Bohr^3]
      Maximum=    1.5309E+00  at reduced coord.    0.0521    0.0000    0.9907
      Minimum=    7.2603E-04  at reduced coord.    0.0000    0.0000    0.5000
   Integrated=    4.9001E+01
 Magnetization (spin up - spin down) [el/Bohr^3]
      Maximum=    4.5757E-01  at reduced coord.    0.0313    0.5556    0.5556
      Minimum=   -7.0456E-03  at reduced coord.    0.9375    0.5889    0.4815
   Integrated=    1.9988E+00
 Relative magnetization (=zeta, between -1 and 1)
      Maximum=    3.7330E-01  at reduced coord.    0.9271    0.4000    0.3889
      Minimum=   -7.3971E-02  at reduced coord.    0.9896    0.0333    0.5185
 ETOT  3  -458.49421589640    -2.09E-01 6.15E-03 6.57E+04 1.999
 scprqt: <Vxc>= -4.0809392E-01 hartree

 Pulay update with  2 previous iterations:
 mixing of old trial potential: alpha(m:m-4)=  0.243      0.307      0.450
{SCF_istep: 3 , Vnl|psi>: 319 , wall_time: ' 56.00 [s] '} <<< TIME

 ITER STEP NUMBER     4
 newocc: new Fermi energy is       0.117114 , with nelect=    100.000000, Number of bisection calls: 47
 mkrho: echo density (plane-wave part only)
 Total charge density [el/Bohr^3]
      Maximum=    3.0504E+00  at reduced coord.    0.9479    0.4889    0.5093
      Minimum=    1.3553E-03  at reduced coord.    0.0000    0.0000    0.5000
   Integrated=    1.0000E+02
 Spin up density      [el/Bohr^3]
      Maximum=    1.5694E+00  at reduced coord.    0.0625    0.4778    0.5185
      Minimum=    6.3154E-04  at reduced coord.    0.0000    0.0000    0.5000
   Integrated=    5.1028E+01
 Spin down density    [el/Bohr^3]
      Maximum=    1.5233E+00  at reduced coord.    0.9375    0.4778    0.4815
      Minimum=    7.2374E-04  at reduced coord.    0.0000    0.0000    0.5000
   Integrated=    4.8972E+01
 Magnetization (spin up - spin down) [el/Bohr^3]
      Maximum=    4.7714E-01  at reduced coord.    0.0729    0.4556    0.5278
      Minimum=   -7.9877E-03  at reduced coord.    0.9479    0.9667    0.9444
   Integrated=    2.0560E+00
 Relative magnetization (=zeta, between -1 and 1)
      Maximum=    3.3305E-01  at reduced coord.    0.9479    0.0667    0.0648
      Minimum=   -6.8033E-02  at reduced coord.    0.0000    0.0000    0.5000
 mkrho: echo density (plane-wave part only)
 Total kinetic energy density [Ha/Bohr^3]
      Maximum=    2.0040E+01  at reduced coord.    0.9896    0.4889    0.4815
      Minimum=    9.6823E-04  at reduced coord.    0.9896    0.0111    0.5093
   Integrated=    2.3570E+02
 Spin up density      [Ha/Bohr^3]
      Maximum=    1.0158E+01  at reduced coord.    0.9896    0.4778    0.5000
      Minimum=    4.5786E-04  at reduced coord.    0.0000    0.0000    0.5000
   Integrated=    1.2308E+02
 Spin down density    [Ha/Bohr^3]
      Maximum=    9.9443E+00  at reduced coord.    0.9896    0.4889    0.4815
      Minimum=    5.1029E-04  at reduced coord.    0.9896    0.0111    0.5093
   Integrated=    1.1262E+02
 Magnetization (spin up - spin down) [Ha/Bohr^3]
      Maximum=    1.7674E+00  at reduced coord.    0.0000    0.0111    0.9537
      Minimum=   -1.6722E-01  at reduced coord.    0.9688    0.4556    0.4444
   Integrated=    1.0464E+01
 Relative magnetization (=zeta, between -1 and 1)
      Maximum=    2.4987E-01  at reduced coord.    0.0833    0.9000    0.9074
      Minimum=   -5.4908E-02  at reduced coord.    0.0000    0.5000    0.0000
 Total charge density [el/Bohr^3]
      Maximum=    3.0504E+00  at reduced coord.    0.9479    0.4889    0.5093
      Minimum=    1.3553E-03  at reduced coord.    0.0000    0.0000    0.5000
   Integrated=    1.0000E+02
 Spin up density      [el/Bohr^3]
      Maximum=    1.5694E+00  at reduced coord.    0.0625    0.4778    0.5185
      Minimum=    6.3154E-04  at reduced coord.    0.0000    0.0000    0.5000
   Integrated=    5.1028E+01
 Spin down density    [el/Bohr^3]
      Maximum=    1.5233E+00  at reduced coord.    0.9375    0.4778    0.4815
      Minimum=    7.2374E-04  at reduced coord.    0.0000    0.0000    0.5000
   Integrated=    4.8972E+01
 Magnetization (spin up - spin down) [el/Bohr^3]
      Maximum=    4.7714E-01  at reduced coord.    0.0729    0.4556    0.5278
      Minimum=   -7.9877E-03  at reduced coord.    0.9479    0.9667    0.9444
   Integrated=    2.0560E+00
 Relative magnetization (=zeta, between -1 and 1)
      Maximum=    3.3305E-01  at reduced coord.    0.9479    0.0667    0.0648
      Minimum=   -6.8033E-02  at reduced coord.    0.0000    0.0000    0.5000
 ETOT  4  -458.62580639605    -1.32E-01 3.55E-03 5.11E+04 2.056
 scprqt: <Vxc>= -4.0760694E-01 hartree

 Pulay update with  3 previous iterations:
 mixing of old trial potential: alpha(m:m-4)=  0.378      0.270      0.921E-02  0.343
{SCF_istep: 4 , Vnl|psi>: 318 , wall_time: ' 55.94 [s] '} <<< TIME

 ITER STEP NUMBER     5
 newocc: new Fermi energy is       0.104177 , with nelect=    100.000000, Number of bisection calls: 46
 mkrho: echo density (plane-wave part only)
 Total charge density [el/Bohr^3]
      Maximum=    3.0479E+00  at reduced coord.    0.0313    0.0222    0.9722
      Minimum=    1.3691E-03  at reduced coord.    0.0000    0.0000    0.5000
   Integrated=    1.0000E+02
 Spin up density      [el/Bohr^3]
      Maximum=    1.5769E+00  at reduced coord.    0.9479    0.9556    0.9815
      Minimum=    6.4478E-04  at reduced coord.    0.0000    0.0000    0.5000
   Integrated=    5.1988E+01
 Spin down density    [el/Bohr^3]
      Maximum=    1.5243E+00  at reduced coord.    0.0208    0.0222    0.9630
      Minimum=    7.2432E-04  at reduced coord.    0.0000    0.0000    0.5000
   Integrated=    4.8012E+01
 Magnetization (spin up - spin down) [el/Bohr^3]
      Maximum=    5.2794E-01  at reduced coord.    0.9688    0.0444    0.0370
      Minimum=   -5.8710E-03  at reduced coord.    0.0104    0.0111    0.9815
   Integrated=    3.9763E+00
 Relative magnetization (=zeta, between -1 and 1)
      Maximum=    3.9386E-01  at reduced coord.    0.9271    0.4111    0.3889
      Minimum=   -5.8140E-02  at reduced coord.    0.0000    0.0111    0.5000
 mkrho: echo density (plane-wave part only)
 Total kinetic energy density [Ha/Bohr^3]
      Maximum=    1.9619E+01  at reduced coord.    0.0208    0.0111    0.0093
      Minimum=    9.7330E-04  at reduced coord.    0.0000    0.0000    0.5000
   Integrated=    2.3660E+02
 Spin up density      [Ha/Bohr^3]
      Maximum=    1.0200E+01  at reduced coord.    0.9792    0.0222    0.9907
      Minimum=    4.6313E-04  at reduced coord.    0.0000    0.0000    0.5000
   Integrated=    1.2777E+02
 Spin down density    [Ha/Bohr^3]
      Maximum=    9.7403E+00  at reduced coord.    0.0000    0.0000    0.0000
      Minimum=    5.0951E-04  at reduced coord.    0.9896    0.0111    0.5093
   Integrated=    1.0883E+02
 Magnetization (spin up - spin down) [Ha/Bohr^3]
      Maximum=    2.4930E+00  at reduced coord.    0.9792    0.5222    0.5278
      Minimum=   -1.4123E-01  at reduced coord.    0.9271    0.5444    0.4722
   Integrated=    1.8935E+01
 Relative magnetization (=zeta, between -1 and 1)
      Maximum=    3.0050E-01  at reduced coord.    0.8958    0.3667    0.3426
      Minimum=   -4.8333E-02  at reduced coord.    0.0000    0.0000    0.5000
 Total charge density [el/Bohr^3]
      Maximum=    3.0479E+00  at reduced coord.    0.0313    0.0222    0.9722
      Minimum=    1.3691E-03  at reduced coord.    0.0000    0.0000    0.5000
   Integrated=    1.0000E+02
 Spin up density      [el/Bohr^3]
      Maximum=    1.5769E+00  at reduced coord.    0.9479    0.9556    0.9815
      Minimum=    6.4478E-04  at reduced coord.    0.0000    0.0000    0.5000
   Integrated=    5.1988E+01
 Spin down density    [el/Bohr^3]
      Maximum=    1.5243E+00  at reduced coord.    0.0208    0.0222    0.9630
      Minimum=    7.2432E-04  at reduced coord.    0.0000    0.0000    0.5000
   Integrated=    4.8012E+01
 Magnetization (spin up - spin down) [el/Bohr^3]
      Maximum=    5.2794E-01  at reduced coord.    0.9688    0.0444    0.0370
      Minimum=   -5.8710E-03  at reduced coord.    0.0104    0.0111    0.9815
   Integrated=    3.9763E+00
 Relative magnetization (=zeta, between -1 and 1)
      Maximum=    3.9386E-01  at reduced coord.    0.9271    0.4111    0.3889
      Minimum=   -5.8140E-02  at reduced coord.    0.0000    0.0111    0.5000
 ETOT  5  -459.06067999970    -4.35E-01 1.31E-03 2.05E+04 3.976
 scprqt: <Vxc>= -4.0732550E-01 hartree

 Pulay update with  4 previous iterations:
 mixing of old trial potential: alpha(m:m-4)=  0.442      0.197      0.661E-01 -0.293E-01  0.324
{SCF_istep: 5 , Vnl|psi>: 319 , wall_time: ' 56.10 [s] '} <<< TIME

 ITER STEP NUMBER     6
 newocc: new Fermi energy is       0.106197 , with nelect=    100.000000, Number of bisection calls: 38
 mkrho: echo density (plane-wave part only)
 Total charge density [el/Bohr^3]
      Maximum=    3.0478E+00  at reduced coord.    0.0313    0.4778    0.4722
      Minimum=    1.3715E-03  at reduced coord.    0.0000    0.0000    0.5000
   Integrated=    1.0000E+02
 Spin up density      [el/Bohr^3]
      Maximum=    1.5636E+00  at reduced coord.    0.0625    0.4778    0.5185
      Minimum=    6.4817E-04  at reduced coord.    0.0000    0.0000    0.5000
   Integrated=    5.2000E+01
 Spin down density    [el/Bohr^3]
      Maximum=    1.5264E+00  at reduced coord.    0.0208    0.0222    0.9630
      Minimum=    7.2329E-04  at reduced coord.    0.0000    0.0000    0.5000
   Integrated=    4.8000E+01
 Magnetization (spin up - spin down) [el/Bohr^3]
      Maximum=    5.5208E-01  at reduced coord.    0.9688    0.0444    0.0370
      Minimum=   -9.4542E-03  at reduced coord.    0.0208    0.0222    0.9722
   Integrated=    3.9998E+00
 Relative magnetization (=zeta, between -1 and 1)
      Maximum=    4.0219E-01  at reduced coord.    0.9271    0.4111    0.3889
      Minimum=   -5.4981E-02  at reduced coord.    0.9688    0.0222    0.5185
 mkrho: echo density (plane-wave part only)
 Total kinetic energy density [Ha/Bohr^3]
      Maximum=    1.9590E+01  at reduced coord.    0.0104    0.0111    0.0093
      Minimum=    9.7511E-04  at reduced coord.    0.0000    0.0000    0.5000
   Integrated=    2.3654E+02
 Spin up density      [Ha/Bohr^3]
      Maximum=    1.0169E+01  at reduced coord.    0.9896    0.0222    0.0000
      Minimum=    4.6474E-04  at reduced coord.    0.0000    0.0000    0.5000
   Integrated=    1.2778E+02
 Spin down density    [Ha/Bohr^3]
      Maximum=    9.7511E+00  at reduced coord.    0.0000    0.0000    0.0000
      Minimum=    5.0931E-04  at reduced coord.    0.9896    0.0111    0.5093
   Integrated=    1.0877E+02
 Magnetization (spin up - spin down) [Ha/Bohr^3]
      Maximum=    2.5401E+00  at reduced coord.    0.9792    0.9778    0.0278
      Minimum=   -1.3612E-01  at reduced coord.    0.9271    0.9556    0.9722
   Integrated=    1.9008E+01
 Relative magnetization (=zeta, between -1 and 1)
      Maximum=    3.0940E-01  at reduced coord.    0.8958    0.3667    0.3426
      Minimum=   -4.6786E-02  at reduced coord.    0.0000    0.0000    0.5000
 Total charge density [el/Bohr^3]
      Maximum=    3.0478E+00  at reduced coord.    0.0313    0.4778    0.4722
      Minimum=    1.3715E-03  at reduced coord.    0.0000    0.0000    0.5000
   Integrated=    1.0000E+02
 Spin up density      [el/Bohr^3]
      Maximum=    1.5636E+00  at reduced coord.    0.0625    0.4778    0.5185
      Minimum=    6.4817E-04  at reduced coord.    0.0000    0.0000    0.5000
   Integrated=    5.2000E+01
 Spin down density    [el/Bohr^3]
      Maximum=    1.5264E+00  at reduced coord.    0.0208    0.0222    0.9630
      Minimum=    7.2329E-04  at reduced coord.    0.0000    0.0000    0.5000
   Integrated=    4.8000E+01
 Magnetization (spin up - spin down) [el/Bohr^3]
      Maximum=    5.5208E-01  at reduced coord.    0.9688    0.0444    0.0370
      Minimum=   -9.4542E-03  at reduced coord.    0.0208    0.0222    0.9722
   Integrated=    3.9998E+00
 Relative magnetization (=zeta, between -1 and 1)
      Maximum=    4.0219E-01  at reduced coord.    0.9271    0.4111    0.3889
      Minimum=   -5.4981E-02  at reduced coord.    0.9688    0.0222    0.5185
 ETOT  6  -459.08157564027    -2.09E-02 1.23E-03 1.67E+04 4.000
 scprqt: <Vxc>= -4.0730813E-01 hartree

 Pulay update with  5 previous iterations:
 mixing of old trial potential: alpha(m:m-4)=   3.31      -2.56     -0.542E-01  0.141E-01  0.427E-01
{SCF_istep: 6 , Vnl|psi>: 318 , wall_time: ' 54.92 [s] '} <<< TIME

 ITER STEP NUMBER     7
 newocc: new Fermi energy is       0.109323 , with nelect=    100.000000, Number of bisection calls: 9
 mkrho: echo density (plane-wave part only)
 Total charge density [el/Bohr^3]
      Maximum=    3.0596E+00  at reduced coord.    0.0313    0.0222    0.9722
      Minimum=    1.3921E-03  at reduced coord.    0.0000    0.0000    0.5000
   Integrated=    1.0000E+02
 Spin up density      [el/Bohr^3]
      Maximum=    1.5807E+00  at reduced coord.    0.9479    0.9556    0.9815
      Minimum=    6.6334E-04  at reduced coord.    0.0000    0.0000    0.5000
   Integrated=    5.2000E+01
 Spin down density    [el/Bohr^3]
      Maximum=    1.5347E+00  at reduced coord.    0.0208    0.0222    0.9630
      Minimum=    7.2880E-04  at reduced coord.    0.0000    0.0000    0.5000
   Integrated=    4.8000E+01
 Magnetization (spin up - spin down) [el/Bohr^3]
      Maximum=    5.9141E-01  at reduced coord.    0.9688    0.4556    0.5370
      Minimum=   -1.6298E-02  at reduced coord.    0.0208    0.0222    0.9722
   Integrated=    4.0000E+00
 Relative magnetization (=zeta, between -1 and 1)
      Maximum=    4.4918E-01  at reduced coord.    0.9271    0.4111    0.3889
      Minimum=   -4.7464E-02  at reduced coord.    0.9688    0.0333    0.5185
 mkrho: echo density (plane-wave part only)
 Total kinetic energy density [Ha/Bohr^3]
      Maximum=    1.9619E+01  at reduced coord.    0.0000    0.9889    0.9907
      Minimum=    9.8547E-04  at reduced coord.    0.0000    0.0000    0.5000
   Integrated=    2.3645E+02
 Spin up density      [Ha/Bohr^3]
      Maximum=    1.0215E+01  at reduced coord.    0.9792    0.0222    0.9907
      Minimum=    4.7297E-04  at reduced coord.    0.0000    0.0000    0.5000
   Integrated=    1.2809E+02
 Spin down density    [Ha/Bohr^3]
      Maximum=    9.7959E+00  at reduced coord.    0.0000    0.0000    0.0000
      Minimum=    5.1229E-04  at reduced coord.    0.9896    0.0111    0.5093
   Integrated=    1.0836E+02
 Magnetization (spin up - spin down) [Ha/Bohr^3]
      Maximum=    2.7163E+00  at reduced coord.    0.9792    0.5222    0.5278
      Minimum=   -6.5765E-02  at reduced coord.    0.0000    0.0000    0.0000
   Integrated=    1.9732E+01
 Relative magnetization (=zeta, between -1 and 1)
      Maximum=    3.1275E-01  at reduced coord.    0.8958    0.3667    0.3426
      Minimum=   -4.0108E-02  at reduced coord.    0.0000    0.0000    0.5000
 Total charge density [el/Bohr^3]
      Maximum=    3.0596E+00  at reduced coord.    0.0313    0.0222    0.9722
      Minimum=    1.3921E-03  at reduced coord.    0.0000    0.0000    0.5000
   Integrated=    1.0000E+02
 Spin up density      [el/Bohr^3]
      Maximum=    1.5807E+00  at reduced coord.    0.9479    0.9556    0.9815
      Minimum=    6.6334E-04  at reduced coord.    0.0000    0.0000    0.5000
   Integrated=    5.2000E+01
 Spin down density    [el/Bohr^3]
      Maximum=    1.5347E+00  at reduced coord.    0.0208    0.0222    0.9630
      Minimum=    7.2880E-04  at reduced coord.    0.0000    0.0000    0.5000
   Integrated=    4.8000E+01
 Magnetization (spin up - spin down) [el/Bohr^3]
      Maximum=    5.9141E-01  at reduced coord.    0.9688    0.4556    0.5370
      Minimum=   -1.6298E-02  at reduced coord.    0.0208    0.0222    0.9722
   Integrated=    4.0000E+00
 Relative magnetization (=zeta, between -1 and 1)
      Maximum=    4.4918E-01  at reduced coord.    0.9271    0.4111    0.3889
      Minimum=   -4.7464E-02  at reduced coord.    0.9688    0.0333    0.5185
 ETOT  7  -459.11145628787    -2.99E-02 4.95E-04 7.79E+03 4.000
 scprqt: <Vxc>= -4.0735072E-01 hartree

 Pulay update with  6 previous iterations:
 mixing of old trial potential: alpha(m:m-4)=   1.73      0.349     -0.741     -0.181     -0.231
{SCF_istep: 7 , Vnl|psi>: 319 , wall_time: ' 55.24 [s] '} <<< TIME

 ITER STEP NUMBER     8
 newocc: new Fermi energy is       0.094673 , with nelect=    100.000000, Number of bisection calls: 6
 mkrho: echo density (plane-wave part only)
 Total charge density [el/Bohr^3]
      Maximum=    3.0724E+00  at reduced coord.    0.0313    0.0222    0.9722
      Minimum=    1.4151E-03  at reduced coord.    0.0000    0.5000    0.0000
   Integrated=    1.0000E+02
 Spin up density      [el/Bohr^3]
      Maximum=    1.6059E+00  at reduced coord.    0.9375    0.9667    0.9722
      Minimum=    6.8555E-04  at reduced coord.    0.0000    0.5000    0.0000
   Integrated=    5.2000E+01
 Spin down density    [el/Bohr^3]
      Maximum=    1.5428E+00  at reduced coord.    0.0208    0.0222    0.9630
      Minimum=    7.2951E-04  at reduced coord.    0.0000    0.5000    0.0000
   Integrated=    4.8000E+01
 Magnetization (spin up - spin down) [el/Bohr^3]
      Maximum=    6.5811E-01  at reduced coord.    0.0729    0.4556    0.5278
      Minimum=   -2.4716E-02  at reduced coord.    0.0208    0.0222    0.9722
   Integrated=    4.0000E+00
 Relative magnetization (=zeta, between -1 and 1)
      Maximum=    4.8945E-01  at reduced coord.    0.9271    0.4111    0.3889
      Minimum=   -3.7101E-02  at reduced coord.    0.0000    0.6778    0.9444
 mkrho: echo density (plane-wave part only)
 Total kinetic energy density [Ha/Bohr^3]
      Maximum=    1.9624E+01  at reduced coord.    0.0000    0.0111    0.0093
      Minimum=    9.9600E-04  at reduced coord.    0.0000    0.5000    0.0000
   Integrated=    2.3679E+02
 Spin up density      [Ha/Bohr^3]
      Maximum=    1.0266E+01  at reduced coord.    0.9792    0.0222    0.9907
      Minimum=    4.8481E-04  at reduced coord.    0.0104    0.5111    0.9907
   Integrated=    1.2864E+02
 Spin down density    [Ha/Bohr^3]
      Maximum=    9.8411E+00  at reduced coord.    0.0000    0.0000    0.0000
      Minimum=    5.1114E-04  at reduced coord.    0.0000    0.5000    0.0000
   Integrated=    1.0814E+02
 Magnetization (spin up - spin down) [Ha/Bohr^3]
      Maximum=    2.9021E+00  at reduced coord.    0.9792    0.5222    0.5278
      Minimum=   -1.5534E-01  at reduced coord.    0.0000    0.5000    0.5000
   Integrated=    2.0501E+01
 Relative magnetization (=zeta, between -1 and 1)
      Maximum=    3.1625E-01  at reduced coord.    0.1042    0.8778    0.1481
      Minimum=   -3.1723E-02  at reduced coord.    0.9792    0.6667    0.9444
 Total charge density [el/Bohr^3]
      Maximum=    3.0724E+00  at reduced coord.    0.0313    0.0222    0.9722
      Minimum=    1.4151E-03  at reduced coord.    0.0000    0.5000    0.0000
   Integrated=    1.0000E+02
 Spin up density      [el/Bohr^3]
      Maximum=    1.6059E+00  at reduced coord.    0.9375    0.9667    0.9722
      Minimum=    6.8555E-04  at reduced coord.    0.0000    0.5000    0.0000
   Integrated=    5.2000E+01
 Spin down density    [el/Bohr^3]
      Maximum=    1.5428E+00  at reduced coord.    0.0208    0.0222    0.9630
      Minimum=    7.2951E-04  at reduced coord.    0.0000    0.5000    0.0000
   Integrated=    4.8000E+01
 Magnetization (spin up - spin down) [el/Bohr^3]
      Maximum=    6.5811E-01  at reduced coord.    0.0729    0.4556    0.5278
      Minimum=   -2.4716E-02  at reduced coord.    0.0208    0.0222    0.9722
   Integrated=    4.0000E+00
 Relative magnetization (=zeta, between -1 and 1)
      Maximum=    4.8945E-01  at reduced coord.    0.9271    0.4111    0.3889
      Minimum=   -3.7101E-02  at reduced coord.    0.0000    0.6778    0.9444
 ETOT  8  -459.12923967335    -1.78E-02 8.35E-04 2.91E+03 4.000
 scprqt: <Vxc>= -4.0716085E-01 hartree

 Pulay update with  7 previous iterations:
 mixing of old trial potential: alpha(m:m-4)=   1.22     -0.633      0.615      0.181     -0.688E-01
{SCF_istep: 8 , Vnl|psi>: 319 , wall_time: ' 55.13 [s] '} <<< TIME

 ITER STEP NUMBER     9
 newocc: new Fermi energy is       0.092768 , with nelect=    100.000000, Number of bisection calls: 6
 mkrho: echo density (plane-wave part only)
 Total charge density [el/Bohr^3]
      Maximum=    3.0750E+00  at reduced coord.    0.9688    0.9778    0.0278
      Minimum=    1.4178E-03  at reduced coord.    0.0000    0.0000    0.5000
   Integrated=    1.0000E+02
 Spin up density      [el/Bohr^3]
      Maximum=    1.6090E+00  at reduced coord.    0.0625    0.4667    0.5278
      Minimum=    6.9348E-04  at reduced coord.    0.0000    0.0000    0.5000
   Integrated=    5.2000E+01
 Spin down density    [el/Bohr^3]
      Maximum=    1.5434E+00  at reduced coord.    0.0208    0.0222    0.9630
      Minimum=    7.2427E-04  at reduced coord.    0.0000    0.0000    0.5000
   Integrated=    4.8000E+01
 Magnetization (spin up - spin down) [el/Bohr^3]
      Maximum=    6.7585E-01  at reduced coord.    0.0729    0.4556    0.5278
      Minimum=   -2.5574E-02  at reduced coord.    0.0104    0.0111    0.9815
   Integrated=    4.0000E+00
 Relative magnetization (=zeta, between -1 and 1)
      Maximum=    5.0239E-01  at reduced coord.    0.9271    0.4111    0.3889
      Minimum=   -3.6157E-02  at reduced coord.    0.1563    0.0889    0.2222
 mkrho: echo density (plane-wave part only)
 Total kinetic energy density [Ha/Bohr^3]
      Maximum=    1.9613E+01  at reduced coord.    0.0000    0.0111    0.0093
      Minimum=    9.9591E-04  at reduced coord.    0.0000    0.0000    0.5000
   Integrated=    2.3696E+02
 Spin up density      [Ha/Bohr^3]
      Maximum=    1.0269E+01  at reduced coord.    0.9792    0.0222    0.9907
      Minimum=    4.8846E-04  at reduced coord.    0.9896    0.0111    0.5093
   Integrated=    1.2878E+02
 Spin down density    [Ha/Bohr^3]
      Maximum=    9.8441E+00  at reduced coord.    0.0000    0.0000    0.0000
      Minimum=    5.0710E-04  at reduced coord.    0.0000    0.0000    0.5000
   Integrated=    1.0818E+02
 Magnetization (spin up - spin down) [Ha/Bohr^3]
      Maximum=    2.9599E+00  at reduced coord.    0.9792    0.5222    0.5278
      Minimum=   -1.7302E-01  at reduced coord.    0.0000    0.5000    0.5000
   Integrated=    2.0602E+01
 Relative magnetization (=zeta, between -1 and 1)
      Maximum=    3.2238E-01  at reduced coord.    0.0625    0.5889    0.4167
      Minimum=   -2.9219E-02  at reduced coord.    0.9792    0.6667    0.9444
 Total charge density [el/Bohr^3]
      Maximum=    3.0750E+00  at reduced coord.    0.9688    0.9778    0.0278
      Minimum=    1.4178E-03  at reduced coord.    0.0000    0.0000    0.5000
   Integrated=    1.0000E+02
 Spin up density      [el/Bohr^3]
      Maximum=    1.6090E+00  at reduced coord.    0.0625    0.4667    0.5278
      Minimum=    6.9348E-04  at reduced coord.    0.0000    0.0000    0.5000
   Integrated=    5.2000E+01
 Spin down density    [el/Bohr^3]
      Maximum=    1.5434E+00  at reduced coord.    0.0208    0.0222    0.9630
      Minimum=    7.2427E-04  at reduced coord.    0.0000    0.0000    0.5000
   Integrated=    4.8000E+01
 Magnetization (spin up - spin down) [el/Bohr^3]
      Maximum=    6.7585E-01  at reduced coord.    0.0729    0.4556    0.5278
      Minimum=   -2.5574E-02  at reduced coord.    0.0104    0.0111    0.9815
   Integrated=    4.0000E+00
 Relative magnetization (=zeta, between -1 and 1)
      Maximum=    5.0239E-01  at reduced coord.    0.9271    0.4111    0.3889
      Minimum=   -3.6157E-02  at reduced coord.    0.1563    0.0889    0.2222
 ETOT  9  -459.13255908412    -3.32E-03 3.23E-04 1.72E+03 4.000
 scprqt: <Vxc>= -4.0693703E-01 hartree

 Pulay update with  7 previous iterations:
 mixing of old trial potential: alpha(m:m-4)=   1.68     -0.403      -1.08      0.481      0.430
{SCF_istep: 9 , Vnl|psi>: 319 , wall_time: ' 54.77 [s] '} <<< TIME

 ITER STEP NUMBER    10
 newocc: new Fermi energy is       0.127624 , with nelect=    100.000000, Number of bisection calls: 7
 mkrho: echo density (plane-wave part only)
 Total charge density [el/Bohr^3]
      Maximum=    3.0732E+00  at reduced coord.    0.9688    0.5222    0.5278
      Minimum=    1.4106E-03  at reduced coord.    0.0000    0.5000    0.0000
   Integrated=    1.0000E+02
 Spin up density      [el/Bohr^3]
      Maximum=    1.6047E+00  at reduced coord.    0.9375    0.5333    0.4722
      Minimum=    6.9454E-04  at reduced coord.    0.0000    0.5000    0.0000
   Integrated=    5.2000E+01
 Spin down density    [el/Bohr^3]
      Maximum=    1.5423E+00  at reduced coord.    0.0313    0.4778    0.4722
      Minimum=    7.1602E-04  at reduced coord.    0.0000    0.5000    0.0000
   Integrated=    4.8000E+01
 Magnetization (spin up - spin down) [el/Bohr^3]
      Maximum=    6.7237E-01  at reduced coord.    0.9271    0.5444    0.4722
      Minimum=   -2.4379E-02  at reduced coord.    0.0000    0.4667    0.5000
   Integrated=    4.0000E+00
 Relative magnetization (=zeta, between -1 and 1)
      Maximum=    5.0764E-01  at reduced coord.    0.9271    0.4111    0.3889
      Minimum=   -3.4160E-02  at reduced coord.    0.1458    0.4222    0.7130
 mkrho: echo density (plane-wave part only)
 Total kinetic energy density [Ha/Bohr^3]
      Maximum=    1.9588E+01  at reduced coord.    0.0000    0.5111    0.4907
      Minimum=    9.9156E-04  at reduced coord.    0.0000    0.0000    0.5000
   Integrated=    2.3697E+02
 Spin up density      [Ha/Bohr^3]
      Maximum=    1.0249E+01  at reduced coord.    0.0208    0.5222    0.5093
      Minimum=    4.8904E-04  at reduced coord.    0.0000    0.5000    0.0000
   Integrated=    1.2871E+02
 Spin down density    [Ha/Bohr^3]
      Maximum=    9.8384E+00  at reduced coord.    0.0000    0.5000    0.5000
      Minimum=    5.0245E-04  at reduced coord.    0.0000    0.0000    0.5000
   Integrated=    1.0826E+02
 Magnetization (spin up - spin down) [Ha/Bohr^3]
      Maximum=    2.9695E+00  at reduced coord.    0.9792    0.5222    0.5278
      Minimum=   -1.6086E-01  at reduced coord.    0.0000    0.5000    0.5000
   Integrated=    2.0446E+01
 Relative magnetization (=zeta, between -1 and 1)
      Maximum=    3.2051E-01  at reduced coord.    0.0625    0.5889    0.4167
      Minimum=   -2.3845E-02  at reduced coord.    0.1979    0.4000    0.8056
 Total charge density [el/Bohr^3]
      Maximum=    3.0732E+00  at reduced coord.    0.9688    0.5222    0.5278
      Minimum=    1.4106E-03  at reduced coord.    0.0000    0.5000    0.0000
   Integrated=    1.0000E+02
 Spin up density      [el/Bohr^3]
      Maximum=    1.6047E+00  at reduced coord.    0.9375    0.5333    0.4722
      Minimum=    6.9454E-04  at reduced coord.    0.0000    0.5000    0.0000
   Integrated=    5.2000E+01
 Spin down density    [el/Bohr^3]
      Maximum=    1.5423E+00  at reduced coord.    0.0313    0.4778    0.4722
      Minimum=    7.1602E-04  at reduced coord.    0.0000    0.5000    0.0000
   Integrated=    4.8000E+01
 Magnetization (spin up - spin down) [el/Bohr^3]
      Maximum=    6.7237E-01  at reduced coord.    0.9271    0.5444    0.4722
      Minimum=   -2.4379E-02  at reduced coord.    0.0000    0.4667    0.5000
   Integrated=    4.0000E+00
 Relative magnetization (=zeta, between -1 and 1)
      Maximum=    5.0764E-01  at reduced coord.    0.9271    0.4111    0.3889
      Minimum=   -3.4160E-02  at reduced coord.    0.1458    0.4222    0.7130
 ETOT 10  -459.13425481005    -1.70E-03 3.41E-04 3.38E+02 4.000
 scprqt: <Vxc>= -4.0670451E-01 hartree

 Pulay update with  7 previous iterations:
 mixing of old trial potential: alpha(m:m-4)=   1.30     -0.202      0.631E-01 -0.282     -0.680
{SCF_istep: 10 , Vnl|psi>: 319 , wall_time: ' 54.65 [s] '} <<< TIME

 ITER STEP NUMBER    11
 newocc: new Fermi energy is       0.127776 , with nelect=    100.000000, Number of bisection calls: 7
 mkrho: echo density (plane-wave part only)
 Total charge density [el/Bohr^3]
      Maximum=    3.0713E+00  at reduced coord.    0.0313    0.4778    0.4722
      Minimum=    1.4085E-03  at reduced coord.    0.0000    0.0000    0.5000
   Integrated=    1.0000E+02
 Spin up density      [el/Bohr^3]
      Maximum=    1.6002E+00  at reduced coord.    0.0625    0.4667    0.5278
      Minimum=    6.9537E-04  at reduced coord.    0.0000    0.0000    0.5000
   Integrated=    5.2000E+01
 Spin down density    [el/Bohr^3]
      Maximum=    1.5408E+00  at reduced coord.    0.0313    0.4778    0.4722
      Minimum=    7.1316E-04  at reduced coord.    0.0000    0.0000    0.5000
   Integrated=    4.8000E+01
 Magnetization (spin up - spin down) [el/Bohr^3]
      Maximum=    6.6284E-01  at reduced coord.    0.0729    0.4556    0.5278
      Minimum=   -2.3287E-02  at reduced coord.    0.0000    0.4667    0.5000
   Integrated=    4.0000E+00
 Relative magnetization (=zeta, between -1 and 1)
      Maximum=    5.0710E-01  at reduced coord.    0.9271    0.4111    0.3889
      Minimum=   -3.2131E-02  at reduced coord.    0.1458    0.4222    0.7130
 mkrho: echo density (plane-wave part only)
 Total kinetic energy density [Ha/Bohr^3]
      Maximum=    1.9580E+01  at reduced coord.    0.0000    0.5111    0.4907
      Minimum=    9.9031E-04  at reduced coord.    0.0000    0.0000    0.5000
   Integrated=    2.3692E+02
 Spin up density      [Ha/Bohr^3]
      Maximum=    1.0237E+01  at reduced coord.    0.0208    0.5222    0.5093
      Minimum=    4.8953E-04  at reduced coord.    0.0000    0.0000    0.5000
   Integrated=    1.2860E+02
 Spin down density    [Ha/Bohr^3]
      Maximum=    9.8297E+00  at reduced coord.    0.0000    0.5000    0.5000
      Minimum=    5.0078E-04  at reduced coord.    0.0000    0.0000    0.5000
   Integrated=    1.0833E+02
 Magnetization (spin up - spin down) [Ha/Bohr^3]
      Maximum=    2.9543E+00  at reduced coord.    0.9792    0.5222    0.5278
      Minimum=   -1.4922E-01  at reduced coord.    0.0000    0.5000    0.5000
   Integrated=    2.0274E+01
 Relative magnetization (=zeta, between -1 and 1)
      Maximum=    3.1780E-01  at reduced coord.    0.9167    0.3889    0.3704
      Minimum=   -2.0644E-02  at reduced coord.    0.1875    0.3889    0.7778
 Total charge density [el/Bohr^3]
      Maximum=    3.0713E+00  at reduced coord.    0.0313    0.4778    0.4722
      Minimum=    1.4085E-03  at reduced coord.    0.0000    0.0000    0.5000
   Integrated=    1.0000E+02
 Spin up density      [el/Bohr^3]
      Maximum=    1.6002E+00  at reduced coord.    0.0625    0.4667    0.5278
      Minimum=    6.9537E-04  at reduced coord.    0.0000    0.0000    0.5000
   Integrated=    5.2000E+01
 Spin down density    [el/Bohr^3]
      Maximum=    1.5408E+00  at reduced coord.    0.0313    0.4778    0.4722
      Minimum=    7.1316E-04  at reduced coord.    0.0000    0.0000    0.5000
   Integrated=    4.8000E+01
 Magnetization (spin up - spin down) [el/Bohr^3]
      Maximum=    6.6284E-01  at reduced coord.    0.0729    0.4556    0.5278
      Minimum=   -2.3287E-02  at reduced coord.    0.0000    0.4667    0.5000
   Integrated=    4.0000E+00
 Relative magnetization (=zeta, between -1 and 1)
      Maximum=    5.0710E-01  at reduced coord.    0.9271    0.4111    0.3889
      Minimum=   -3.2131E-02  at reduced coord.    0.1458    0.4222    0.7130
 ETOT 11  -459.13423488686     1.99E-05 2.11E-04 3.10E+02 4.000
 scprqt: <Vxc>= -4.0667744E-01 hartree

 Pulay update with  7 previous iterations:
 mixing of old trial potential: alpha(m:m-4)=   1.87      -1.29      0.232      0.421     -0.164
{SCF_istep: 11 , Vnl|psi>: 319 , wall_time: ' 54.79 [s] '} <<< TIME

 ITER STEP NUMBER    12
 newocc: new Fermi energy is       0.126833 , with nelect=    100.000000, Number of bisection calls: 7
 mkrho: echo density (plane-wave part only)
 Total charge density [el/Bohr^3]
      Maximum=    3.0729E+00  at reduced coord.    0.0313    0.0222    0.9722
      Minimum=    1.4143E-03  at reduced coord.    0.0000    0.0000    0.5000
   Integrated=    1.0000E+02
 Spin up density      [el/Bohr^3]
      Maximum=    1.6022E+00  at reduced coord.    0.0625    0.4667    0.5278
      Minimum=    6.9952E-04  at reduced coord.    0.0000    0.0000    0.5000
   Integrated=    5.2000E+01
 Spin down density    [el/Bohr^3]
      Maximum=    1.5417E+00  at reduced coord.    0.0313    0.4778    0.4722
      Minimum=    7.1481E-04  at reduced coord.    0.0000    0.0000    0.5000
   Integrated=    4.8000E+01
 Magnetization (spin up - spin down) [el/Bohr^3]
      Maximum=    6.6377E-01  at reduced coord.    0.9688    0.4556    0.5370
      Minimum=   -2.4516E-02  at reduced coord.    0.0000    0.4667    0.5000
   Integrated=    4.0000E+00
 Relative magnetization (=zeta, between -1 and 1)
      Maximum=    5.0761E-01  at reduced coord.    0.9271    0.4111    0.3889
      Minimum=   -3.1687E-02  at reduced coord.    0.1458    0.4222    0.7130
 mkrho: echo density (plane-wave part only)
 Total kinetic energy density [Ha/Bohr^3]
      Maximum=    1.9590E+01  at reduced coord.    0.0000    0.9889    0.9907
      Minimum=    9.9334E-04  at reduced coord.    0.0000    0.0000    0.5000
   Integrated=    2.3697E+02
 Spin up density      [Ha/Bohr^3]
      Maximum=    1.0245E+01  at reduced coord.    0.9792    0.0222    0.9907
      Minimum=    4.9186E-04  at reduced coord.    0.0000    0.0000    0.5000
   Integrated=    1.2862E+02
 Spin down density    [Ha/Bohr^3]
      Maximum=    9.8335E+00  at reduced coord.    0.0000    0.0000    0.0000
      Minimum=    5.0148E-04  at reduced coord.    0.0000    0.0000    0.5000
   Integrated=    1.0835E+02
 Magnetization (spin up - spin down) [Ha/Bohr^3]
      Maximum=    2.9530E+00  at reduced coord.    0.9792    0.5222    0.5278
      Minimum=   -1.5993E-01  at reduced coord.    0.0000    0.5000    0.5000
   Integrated=    2.0272E+01
 Relative magnetization (=zeta, between -1 and 1)
      Maximum=    3.1890E-01  at reduced coord.    0.9167    0.3889    0.3704
      Minimum=   -2.0192E-02  at reduced coord.    0.1875    0.3889    0.7778
 Total charge density [el/Bohr^3]
      Maximum=    3.0729E+00  at reduced coord.    0.0313    0.0222    0.9722
      Minimum=    1.4143E-03  at reduced coord.    0.0000    0.0000    0.5000
   Integrated=    1.0000E+02
 Spin up density      [el/Bohr^3]
      Maximum=    1.6022E+00  at reduced coord.    0.0625    0.4667    0.5278
      Minimum=    6.9952E-04  at reduced coord.    0.0000    0.0000    0.5000
   Integrated=    5.2000E+01
 Spin down density    [el/Bohr^3]
      Maximum=    1.5417E+00  at reduced coord.    0.0313    0.4778    0.4722
      Minimum=    7.1481E-04  at reduced coord.    0.0000    0.0000    0.5000
   Integrated=    4.8000E+01
 Magnetization (spin up - spin down) [el/Bohr^3]
      Maximum=    6.6377E-01  at reduced coord.    0.9688    0.4556    0.5370
      Minimum=   -2.4516E-02  at reduced coord.    0.0000    0.4667    0.5000
   Integrated=    4.0000E+00
 Relative magnetization (=zeta, between -1 and 1)
      Maximum=    5.0761E-01  at reduced coord.    0.9271    0.4111    0.3889
      Minimum=   -3.1687E-02  at reduced coord.    0.1458    0.4222    0.7130
 ETOT 12  -459.13443075787    -1.96E-04 1.89E-04 3.39E+01 4.000
 scprqt: <Vxc>= -4.0673889E-01 hartree

 Pulay update with  7 previous iterations:
 mixing of old trial potential: alpha(m:m-4)=   1.26     -0.335      0.123     -0.133      0.417E-01
{SCF_istep: 12 , Vnl|psi>: 319 , wall_time: ' 54.62 [s] '} <<< TIME

 ITER STEP NUMBER    13
 newocc: new Fermi energy is       0.126652 , with nelect=    100.000000, Number of bisection calls: 7
 mkrho: echo density (plane-wave part only)
 Total charge density [el/Bohr^3]
      Maximum=    3.0725E+00  at reduced coord.    0.0313    0.4778    0.4722
      Minimum=    1.4152E-03  at reduced coord.    0.0000    0.5000    0.0000
   Integrated=    1.0000E+02
 Spin up density      [el/Bohr^3]
      Maximum=    1.6029E+00  at reduced coord.    0.0625    0.4667    0.5278
      Minimum=    7.0028E-04  at reduced coord.    0.0000    0.5000    0.0000
   Integrated=    5.2000E+01
 Spin down density    [el/Bohr^3]
      Maximum=    1.5423E+00  at reduced coord.    0.0313    0.4778    0.4722
      Minimum=    7.1488E-04  at reduced coord.    0.0000    0.5000    0.0000
   Integrated=    4.8000E+01
 Magnetization (spin up - spin down) [el/Bohr^3]
      Maximum=    6.6464E-01  at reduced coord.    0.0313    0.5444    0.4630
      Minimum=   -2.4928E-02  at reduced coord.    0.0000    0.4667    0.5000
   Integrated=    4.0000E+00
 Relative magnetization (=zeta, between -1 and 1)
      Maximum=    5.0776E-01  at reduced coord.    0.9271    0.0889    0.8889
      Minimum=   -3.1369E-02  at reduced coord.    0.1458    0.4222    0.7130
 mkrho: echo density (plane-wave part only)
 Total kinetic energy density [Ha/Bohr^3]
      Maximum=    1.9583E+01  at reduced coord.    0.0000    0.4889    0.5093
      Minimum=    9.9372E-04  at reduced coord.    0.0000    0.5000    0.0000
   Integrated=    2.3695E+02
 Spin up density      [Ha/Bohr^3]
      Maximum=    1.0240E+01  at reduced coord.    0.0208    0.5222    0.5093
      Minimum=    4.9226E-04  at reduced coord.    0.0000    0.5000    0.0000
   Integrated=    1.2862E+02
 Spin down density    [Ha/Bohr^3]
      Maximum=    9.8347E+00  at reduced coord.    0.0000    0.5000    0.5000
      Minimum=    5.0146E-04  at reduced coord.    0.0000    0.5000    0.0000
   Integrated=    1.0834E+02
 Magnetization (spin up - spin down) [Ha/Bohr^3]
      Maximum=    2.9509E+00  at reduced coord.    0.0208    0.4778    0.4722
      Minimum=   -1.6361E-01  at reduced coord.    0.0000    0.5000    0.5000
   Integrated=    2.0279E+01
 Relative magnetization (=zeta, between -1 and 1)
      Maximum=    3.1947E-01  at reduced coord.    0.9167    0.3889    0.3704
      Minimum=   -1.9969E-02  at reduced coord.    0.1875    0.4000    0.7778
 Total charge density [el/Bohr^3]
      Maximum=    3.0725E+00  at reduced coord.    0.0313    0.4778    0.4722
      Minimum=    1.4152E-03  at reduced coord.    0.0000    0.5000    0.0000
   Integrated=    1.0000E+02
 Spin up density      [el/Bohr^3]
      Maximum=    1.6029E+00  at reduced coord.    0.0625    0.4667    0.5278
      Minimum=    7.0028E-04  at reduced coord.    0.0000    0.5000    0.0000
   Integrated=    5.2000E+01
 Spin down density    [el/Bohr^3]
[...]
                       6.0900307786E-03 -5.5291299040E-03 -4.5100006054E-03
                      -6.0766702443E-03 -5.4910007299E-03 -4.5112788613E-03
                      -6.0894058252E-03  5.5210448430E-03  4.5113729078E-03
                       5.5196909606E-03 -1.0488902907E-02  4.9599446918E-03
                       5.5512624758E-03  1.0462474682E-02 -4.9412123713E-03
                      -5.5216011709E-03  1.0491957191E-02 -4.9599987385E-03
                      -5.5506042497E-03 -1.0464162707E-02  4.9410802979E-03
                      -1.0425531477E-02 -1.3319516325E-02 -3.7414426009E-03
                      -1.0415404746E-02  1.3339548019E-02  3.7833945131E-03
                       1.0433431017E-02  1.3323298738E-02  3.7446929641E-03
                       1.0412007970E-02 -1.3336223634E-02 -3.7823467052E-03
-          fftalg         312
              ixc     -263267
              kpt      2.50000000E-01  2.50000000E-01  2.50000000E-01
                      -2.50000000E-01  2.50000000E-01  2.50000000E-01
                       2.50000000E-01 -2.50000000E-01  2.50000000E-01
                      -2.50000000E-01 -2.50000000E-01  2.50000000E-01
         kptrlatt        2    0    0      0    2    0      0    0    2
          kptrlen      1.92252067E+01
P           mkmem           1
            natom          14
            nband          65
            ngfft          96      90     108
             nkpt           4
-        np_spkpt           8
           nspden           2
           nsppol           2
            nstep          60
             nsym           1
           ntypat           3
              occ      1.000000  1.000000  1.000000  1.000000  1.000000  1.000000
                       1.000000  1.000000  1.000000  1.000000  1.000000  1.000000
                       1.000000  1.000000  1.000000  1.000000  1.000000  1.000000
                       1.000000  1.000000  1.000000  1.000000  1.000000  1.000000
                       1.000000  1.000000  1.000000  1.000000  1.000000  1.000000
                       1.000000  1.000000  1.000000  1.000000  1.000000  1.000000
                       1.000000  1.000000  1.000000  1.000000  1.000000  1.000000
                       1.000000  1.000000  1.000000  1.000000  1.000000  1.000000
                       1.000000  1.000000  1.000000  1.000000  0.000000  0.000000
                       0.000000  0.000000  0.000000  0.000000  0.000000  0.000000
                       0.000000  0.000000  0.000000  0.000000  0.000000
                       1.000000  1.000000  1.000000  1.000000  1.000000  1.000000
                       1.000000  1.000000  1.000000  1.000000  1.000000  1.000000
                       1.000000  1.000000  1.000000  1.000000  1.000000  1.000000
                       1.000000  1.000000  1.000000  1.000000  1.000000  1.000000
                       1.000000  1.000000  1.000000  1.000000  1.000000  1.000000
                       1.000000  1.000000  1.000000  1.000000  1.000000  1.000000
                       1.000000  1.000000  1.000000  1.000000  1.000000  1.000000
                       1.000000  1.000000  1.000000  1.000000  1.000000  1.000000
                       1.000000  1.000000  1.000000  1.000000  0.000000  0.000000
                       0.000000  0.000000  0.000000  0.000000  0.000000  0.000000
                       0.000000  0.000000  0.000000  0.000000  0.000000
                       1.000000  1.000000  1.000000  1.000000  1.000000  1.000000
                       1.000000  1.000000  1.000000  1.000000  1.000000  1.000000
                       1.000000  1.000000  1.000000  1.000000  1.000000  1.000000
                       1.000000  1.000000  1.000000  1.000000  1.000000  1.000000
                       1.000000  1.000000  1.000000  1.000000  1.000000  1.000000
                       1.000000  1.000000  1.000000  1.000000  1.000000  1.000000
                       1.000000  1.000000  1.000000  1.000000  1.000000  1.000000
                       1.000000  1.000000  1.000000  1.000000  1.000000  1.000000
                       1.000000  1.000000  1.000000  1.000000  0.000000  0.000000
                       0.000000  0.000000  0.000000  0.000000  0.000000  0.000000
                       0.000000  0.000000  0.000000  0.000000  0.000000
                       1.000000  1.000000  1.000000  1.000000  1.000000  1.000000
                       1.000000  1.000000  1.000000  1.000000  1.000000  1.000000
                       1.000000  1.000000  1.000000  1.000000  1.000000  1.000000
                       1.000000  1.000000  1.000000  1.000000  1.000000  1.000000
                       1.000000  1.000000  1.000000  1.000000  1.000000  1.000000
                       1.000000  1.000000  1.000000  1.000000  1.000000  1.000000
                       1.000000  1.000000  1.000000  1.000000  1.000000  1.000000
                       1.000000  1.000000  1.000000  1.000000  1.000000  1.000000
                       1.000000  1.000000  1.000000  1.000000  0.000000  0.000000
                       0.000000  0.000000  0.000000  0.000000  0.000000  0.000000
                       0.000000  0.000000  0.000000  0.000000  0.000000
                       1.000000  1.000000  1.000000  1.000000  1.000000  1.000000
                       1.000000  1.000000  1.000000  1.000000  1.000000  1.000000
                       1.000000  1.000000  1.000000  1.000000  1.000000  1.000000
                       1.000000  1.000000  1.000000  1.000000  1.000000  1.000000
                       1.000000  1.000000  1.000000  1.000000  1.000000  1.000000
                       1.000000  1.000000  1.000000  1.000000  1.000000  1.000000
                       1.000000  1.000000  1.000000  1.000000  1.000000  1.000000
                       1.000000  1.000000  1.000000  1.000000  1.000000  1.000000
                       0.000000  0.000000  0.000000  0.000000  0.000000  0.000000
                       0.000000  0.000000  0.000000  0.000000  0.000000  0.000000
                       0.000000  0.000000  0.000000  0.000000  0.000000
                       1.000000  1.000000  1.000000  1.000000  1.000000  1.000000
                       1.000000  1.000000  1.000000  1.000000  1.000000  1.000000
                       1.000000  1.000000  1.000000  1.000000  1.000000  1.000000
                       1.000000  1.000000  1.000000  1.000000  1.000000  1.000000
                       1.000000  1.000000  1.000000  1.000000  1.000000  1.000000
                       1.000000  1.000000  1.000000  1.000000  1.000000  1.000000
                       1.000000  1.000000  1.000000  1.000000  1.000000  1.000000
                       1.000000  1.000000  1.000000  1.000000  1.000000  1.000000
                       0.000000  0.000000  0.000000  0.000000  0.000000  0.000000
                       0.000000  0.000000  0.000000  0.000000  0.000000  0.000000
                       0.000000  0.000000  0.000000  0.000000  0.000000
                       1.000000  1.000000  1.000000  1.000000  1.000000  1.000000
                       1.000000  1.000000  1.000000  1.000000  1.000000  1.000000
                       1.000000  1.000000  1.000000  1.000000  1.000000  1.000000
                       1.000000  1.000000  1.000000  1.000000  1.000000  1.000000
                       1.000000  1.000000  1.000000  1.000000  1.000000  1.000000
                       1.000000  1.000000  1.000000  1.000000  1.000000  1.000000
                       1.000000  1.000000  1.000000  1.000000  1.000000  1.000000
                       1.000000  1.000000  1.000000  1.000000  1.000000  1.000000
                       0.000000  0.000000  0.000000  0.000000  0.000000  0.000000
                       0.000000  0.000000  0.000000  0.000000  0.000000  0.000000
                       0.000000  0.000000  0.000000  0.000000  0.000000
                       1.000000  1.000000  1.000000  1.000000  1.000000  1.000000
                       1.000000  1.000000  1.000000  1.000000  1.000000  1.000000
                       1.000000  1.000000  1.000000  1.000000  1.000000  1.000000
                       1.000000  1.000000  1.000000  1.000000  1.000000  1.000000
                       1.000000  1.000000  1.000000  1.000000  1.000000  1.000000
                       1.000000  1.000000  1.000000  1.000000  1.000000  1.000000
                       1.000000  1.000000  1.000000  1.000000  1.000000  1.000000
                       1.000000  1.000000  1.000000  1.000000  1.000000  1.000000
                       0.000000  0.000000  0.000000  0.000000  0.000000  0.000000
                       0.000000  0.000000  0.000000  0.000000  0.000000  0.000000
                       0.000000  0.000000  0.000000  0.000000  0.000000
           occopt           3
           prtden           0
           prteig           0
          prtkden           1
            prtwf           0
            rprim      0.0000000000E+00  1.0137047334E+01  0.0000000000E+00
                       9.6126033568E+00  0.0000000000E+00  0.0000000000E+00
                       0.0000000000E+00 -5.7455806104E+00 -9.8776109362E+00
           shiftk      5.00000000E-01  5.00000000E-01  5.00000000E-01
          spgroup           1
           spinat      0.0000000000E+00  0.0000000000E+00  1.0000000000E+00
                       0.0000000000E+00  0.0000000000E+00  1.0000000000E+00
                       0.0000000000E+00  0.0000000000E+00  1.0000000000E+00
                       0.0000000000E+00  0.0000000000E+00  1.0000000000E+00
                       0.0000000000E+00  0.0000000000E+00  1.0000000000E+00
                       0.0000000000E+00  0.0000000000E+00  1.0000000000E+00
                       0.0000000000E+00  0.0000000000E+00  1.0000000000E+00
                       0.0000000000E+00  0.0000000000E+00  1.0000000000E+00
                       0.0000000000E+00  0.0000000000E+00  1.0000000000E+00
                       0.0000000000E+00  0.0000000000E+00  1.0000000000E+00
                       0.0000000000E+00  0.0000000000E+00  1.0000000000E+00
                       0.0000000000E+00  0.0000000000E+00  1.0000000000E+00
                       0.0000000000E+00  0.0000000000E+00  1.0000000000E+00
                       0.0000000000E+00  0.0000000000E+00  1.0000000000E+00
           strten      1.3092602329E-02  1.3002465107E-02  1.3069207063E-02
                       5.0710773459E-06 -7.6021756782E-08 -2.0088632321E-08
           toldfe      1.00000000E-06 Hartree
           tsmear      1.00000000E-03 Hartree
            typat      1  1  2  2  2  2  3  3  3  3  3  3  3  3
          usekden           1
              wtk        0.25000    0.25000    0.25000    0.25000
           xangst      2.5433853058E+00 -1.5202151546E+00 -2.6135032914E+00
                       0.0000000000E+00  0.0000000000E+00  0.0000000000E+00
                       3.1562750365E+00  1.1910186627E+00 -2.1474058874E+00
                       6.1288973068E-01  2.6530605942E+00 -4.6609740399E-01
                       1.9304955751E+00  1.1328454397E+00 -3.0796006954E+00
                       4.4738808809E+00 -3.2919649184E-01 -4.7609091788E+00
                       1.4881550895E+00  2.2345712582E+00 -3.5468271328E+00
                       4.0315403953E+00 -1.4309223104E+00 -4.2936827414E+00
                       3.5986155221E+00  8.9292844179E-02 -1.6801794500E+00
                       1.0552302163E+00  3.7547864128E+00 -9.3332384141E-01
                       3.6404796442E+00  2.3325325213E+00 -1.9145427441E+00
                       1.0970943384E+00  1.5115467357E+00 -6.9896054726E-01
                       1.4462909674E+00 -8.6684189171E-03 -3.3124638386E+00
                       3.9896762732E+00  8.1231736673E-01 -4.5280460355E+00
            xcart      4.8063016784E+00 -2.8727903052E+00 -4.9388054681E+00
                       0.0000000000E+00  0.0000000000E+00  0.0000000000E+00
                       5.9644954190E+00  2.2506990917E+00 -4.0580090233E+00
                       1.1581937406E+00  5.0135579370E+00 -8.8079644479E-01
                       3.6481079377E+00  2.1407676318E+00 -5.8196019129E+00
                       8.4544096161E+00 -6.2209121348E-01 -8.9968144914E+00
                       2.8122055624E+00  4.2227277024E+00 -6.7025319217E+00
                       7.6185072408E+00 -2.7040512841E+00 -8.1138844827E+00
                       6.8003977943E+00  1.6873902112E-01 -3.1750790146E+00
                       1.9940961159E+00  7.0955180076E+00 -1.7637264536E+00
                       6.8795095200E+00  4.4078476613E+00 -3.6179614561E+00
                       2.0732078416E+00  2.8564093675E+00 -1.3208440120E+00
                       2.7330938368E+00 -1.6380937759E-02 -6.2596494801E+00
                       7.5393955152E+00  1.5350573561E+00 -8.5567669242E+00
             xred     -5.0809124433E-18  5.0000000000E-01  5.0000000000E-01
                       0.0000000000E+00  0.0000000000E+00  0.0000000000E+00
                       4.5488100000E-01  6.2048700000E-01  4.1082900000E-01
                       5.4511900000E-01  1.2048700000E-01  8.9171000000E-02
                       5.4511900000E-01  3.7951300000E-01  5.8917100000E-01
                       4.5488100000E-01  8.7951300000E-01  9.1082900000E-01
                       8.0116400000E-01  2.9255400000E-01  6.7855800000E-01
                       1.9883600000E-01  7.9255400000E-01  8.2144200000E-01
                       1.9883600000E-01  7.0744600000E-01  3.2144200000E-01
                       8.0116400000E-01  2.0744600000E-01  1.7855800000E-01
                       6.4242900000E-01  7.1567600000E-01  3.6627900000E-01
                       3.5757100000E-01  2.1567600000E-01  1.3372100000E-01
                       3.5757100000E-01  2.8432400000E-01  6.3372100000E-01
                       6.4242900000E-01  7.8432400000E-01  8.6627900000E-01
            znucl       28.00000    6.00000    8.00000

================================================================================
  

================================================================================

 Suggested references for the acknowledgment of ABINIT usage.

 The users of ABINIT have little formal obligations with respect to the ABINIT group
 (those specified in the GNU General Public License, http://www.gnu.org/copyleft/gpl.txt).
 However, it is common practice in the scientific literature,
 to acknowledge the efforts of people that have made the research possible.
 In this spirit, please find below suggested citations of work written by ABINIT developers,
 corresponding to implementations inside of ABINIT that you have used in the present run.
 Note also that it will be of great value to readers of publications presenting these results,
 to read papers enabling them to understand the theoretical formalism and details
 of the ABINIT implementation.
 For information on why they are suggested, see also https://docs.abinit.org/theory/acknowledgments.
-
- [1] Libxc: A library of exchange and correlation functionals for density functional theory.
- M.A.L. Marques, M.J.T. Oliveira, T. Burnus, Computer Physics Communications 183, 2227 (2012).
- Comment: to be cited when LibXC is used (negative value of ixc)
- Strong suggestion to cite this paper.
- DOI and bibtex: see https://docs.abinit.org/theory/bibliography/#marques2012
-
- [2] The Abinit project: Impact, environment and recent developments.
- Computer Phys. Comm. 248, 107042 (2020).
- X.Gonze, B. Amadon, G. Antonius, F.Arnardi, L.Baguet, J.-M.Beuken,
- J.Bieder, F.Bottin, J.Bouchet, E.Bousquet, N.Brouwer, F.Bruneval,
- G.Brunin, T.Cavignac, J.-B. Charraud, Wei Chen, M.Cote, S.Cottenier,
- J.Denier, G.Geneste, Ph.Ghosez, M.Giantomassi, Y.Gillet, O.Gingras,
- D.R.Hamann, G.Hautier, Xu He, N.Helbig, N.Holzwarth, Y.Jia, F.Jollet,
- W.Lafargue-Dit-Hauret, K.Lejaeghere, M.A.L.Marques, A.Martin, C.Martins,
- H.P.C. Miranda, F.Naccarato, K. Persson, G.Petretto, V.Planes, Y.Pouillon,
- S.Prokhorenko, F.Ricci, G.-M.Rignanese, A.H.Romero, M.M.Schmitt, M.Torrent,
- M.J.van Setten, B.Van Troeye, M.J.Verstraete, G.Zerah and J.W.Zwanzig
- Comment: the fifth generic paper describing the ABINIT project.
- Note that a version of this paper, that is not formatted for Computer Phys. Comm. 
- is available at https://www.abinit.org/sites/default/files/ABINIT20.pdf .
- The licence allows the authors to put it on the Web.
- DOI and bibtex: see https://docs.abinit.org/theory/bibliography/#gonze2020
-
- [3] Optimized norm-conserving Vanderbilt pseudopotentials.
- D.R. Hamann, Phys. Rev. B 88, 085117 (2013).
- Comment: Some pseudopotential generated using the ONCVPSP code were used.
- DOI and bibtex: see https://docs.abinit.org/theory/bibliography/#hamann2013
-
- [4] ABINIT: Overview, and focus on selected capabilities
- J. Chem. Phys. 152, 124102 (2020).
- A. Romero, D.C. Allan, B. Amadon, G. Antonius, T. Applencourt, L.Baguet,
- J.Bieder, F.Bottin, J.Bouchet, E.Bousquet, F.Bruneval,
- G.Brunin, D.Caliste, M.Cote,
- J.Denier, C. Dreyer, Ph.Ghosez, M.Giantomassi, Y.Gillet, O.Gingras,
- D.R.Hamann, G.Hautier, F.Jollet, G. Jomard,
- A.Martin, 
- H.P.C. Miranda, F.Naccarato, G.Petretto, N.A. Pike, V.Planes,
- S.Prokhorenko, T. Rangel, F.Ricci, G.-M.Rignanese, M.Royo, M.Stengel, M.Torrent,
- M.J.van Setten, B.Van Troeye, M.J.Verstraete, J.Wiktor, J.W.Zwanziger, and X.Gonze.
- Comment: a global overview of ABINIT, with focus on selected capabilities .
- Note that a version of this paper, that is not formatted for J. Chem. Phys 
- is available at https://www.abinit.org/sites/default/files/ABINIT20_JPC.pdf .
- The licence allows the authors to put it on the Web.
- DOI and bibtex: see https://docs.abinit.org/theory/bibliography/#romero2020
-
- [5] Recent developments in the ABINIT software package.
- Computer Phys. Comm. 205, 106 (2016).
- X.Gonze, F.Jollet, F.Abreu Araujo, D.Adams, B.Amadon, T.Applencourt,
- C.Audouze, J.-M.Beuken, J.Bieder, A.Bokhanchuk, E.Bousquet, F.Bruneval
- D.Caliste, M.Cote, F.Dahm, F.Da Pieve, M.Delaveau, M.Di Gennaro,
- B.Dorado, C.Espejo, G.Geneste, L.Genovese, A.Gerossier, M.Giantomassi,
- Y.Gillet, D.R.Hamann, L.He, G.Jomard, J.Laflamme Janssen, S.Le Roux,
- A.Levitt, A.Lherbier, F.Liu, I.Lukacevic, A.Martin, C.Martins,
- M.J.T.Oliveira, S.Ponce, Y.Pouillon, T.Rangel, G.-M.Rignanese,
- A.H.Romero, B.Rousseau, O.Rubel, A.A.Shukri, M.Stankovski, M.Torrent,
- M.J.Van Setten, B.Van Troeye, M.J.Verstraete, D.Waroquier, J.Wiktor,
- B.Xu, A.Zhou, J.W.Zwanziger.
- Comment: the fourth generic paper describing the ABINIT project.
- Note that a version of this paper, that is not formatted for Computer Phys. Comm. 
- is available at https://www.abinit.org/sites/default/files/ABINIT16.pdf .
- The licence allows the authors to put it on the Web.
- DOI and bibtex: see https://docs.abinit.org/theory/bibliography/#gonze2016
 Proc.   0 individual time (sec): cpu=       1160.2  wall=       1164.1

 Calculation completed.
.Delivered   0 WARNINGs and   0 COMMENTs to log file.

--- !FinalSummary
program: abinit
version: 9.6.2
start_datetime: Thu Dec 08 10:55:47 2022
end_datetime: Thu Dec 08 11:15:11 2022
overall_cpu_time:        9286.2
overall_wall_time:        9313.9
exit_requested_by_user: no 
timelimit: 0
pseudos: 
    Ni  : 6ed2f4ef33f542dbb8bccaf193f9ee1b
    C   : 0671db42fbc6781d44a36978545fd691
    O   : ec29db0878725605673bf3262559bcee
usepaw: 0
mpi_procs: 12
omp_threads: 1
num_warnings: 0
num_comments: 0
...
---------------------------------------
Begin Slurm Epilog: Dec-08-2022 11:15:12
Job ID:        160510
Array Job ID:  _4294967294
User ID:       bzhang376
Account:       gts-phanish6
Job name:      AbiNiC2O4
Resources:     cpu=12,mem=84G,node=1
Rsrc Used:     cput=03:53:36,vmem=8020K,walltime=00:19:28,mem=7132K,energy_used=0
Partition:     cpu-small
QOS:           inferno
Nodes:         atl1-1-03-002-11-1
---------------------------------------
