---------------------------------------
Begin Slurm Prolog: Dec-08-2022 01:27:17
Job ID:    157966
User ID:   bzhang376
Account:   gts-phanish6
Job name:  AbiNiC2O4
Partition: cpu-small
QOS:       inferno
---------------------------------------
  ABINIT 9.6.2
  
 DeprecationWarning: 

     The files file has been deprecated in Abinit9 and will be removed in Abinit10.
     Use the syntax `abinit t01.abi` where t01.abi is an input with pseudopotentials e.g.

            pseudos = "al.psp8, as.psp8"


  Give name for formatted input file: 
NiC2O4.in
  Give name for formatted output file:
NiC2O4.out
  Give root name for generic input files:
abi
  Give root name for generic output files:
abo
  Give root name for generic temporary files:
tmp

.Version 9.6.2 of ABINIT 
.(MPI version, prepared for a x86_64_linux_gnu10.3 computer) 

.Copyright (C) 1998-2021 ABINIT group . 
 ABINIT comes with ABSOLUTELY NO WARRANTY.
 It is free software, and you are welcome to redistribute it
 under certain conditions (GNU General Public License,
 see ~abinit/COPYING or http://www.gnu.org/copyleft/gpl.txt).

 ABINIT is a project of the Universite Catholique de Louvain,
 Corning Inc. and other collaborators, see ~abinit/doc/developers/contributors.txt .
 Please read https://docs.abinit.org/theory/acknowledgments for suggested
 acknowledgments of the ABINIT effort.
 For more information, see https://www.abinit.org .

.Starting date : Thu  8 Dec 2022.
- ( at 01h27 )
  

 ++++++++++++++++++++++++++++++++++++++++++++++++++++++++++++++++++++++++++++++

 === Build Information === 
  Version       : 9.6.2
  Build target  : x86_64_linux_gnu10.3
  Build date    : 20221111

 === Compiler Suite === 
  C compiler       : gnu10.3
  C++ compiler     : gnu10.3
  Fortran compiler : gnu10.3
  CFLAGS           : -g -O2 -mtune=native -march=native
  CXXFLAGS         : -g -O2 -mtune=native -march=native
  FCFLAGS          : -g -ffree-line-length-none -fallow-argument-mismatch     -I/usr/loc ...
  FC_LDFLAGS       : 

 === Optimizations === 
  Debug level        : basic
  Optimization level : standard
  Architecture       : intel_xeon

 === Multicore === 
  Parallel build : yes
  Parallel I/O   : 
  openMP support : no
  GPU support    : 

 === Connectors / Fallbacks === 
  LINALG flavor  : openblas
  FFT flavor     : fftw3
  HDF5           : yes
  NetCDF         : yes
  NetCDF Fortran : yes
  LibXC          : yes
  Wannier90      : no

 === Experimental features === 
  Exports             : 
  GW double-precision : 

 ++++++++++++++++++++++++++++++++++++++++++++++++++++++++++++++++++++++++++++++


 ++++++++++++++++++++++++++++++++++++++++++++++++++++++++++++++++++++++++++++++
 Default optimizations:
   -O2 -mtune=native -march=native


 Optimizations for 43_ptgroups:
   -O0


 ++++++++++++++++++++++++++++++++++++++++++++++++++++++++++++++++++++++++++++++


 ++++++++++++++++++++++++++++++++++++++++++++++++++++++++++++++++++++++++++++++
 CPP options activated during the build:

                    CC_GNU                   CXX_GNU                    FC_GNU
 
              HAVE_ATOMPAW HAVE_FC_ALLOCATABLE_DT...             HAVE_FC_ASYNC
 
         HAVE_FC_BACKTRACE  HAVE_FC_COMMAND_ARGUMENT      HAVE_FC_COMMAND_LINE
 
        HAVE_FC_CONTIGUOUS           HAVE_FC_CPUTIME              HAVE_FC_EXIT
 
             HAVE_FC_FLUSH             HAVE_FC_GAMMA            HAVE_FC_GETENV
 
   HAVE_FC_IEEE_ARITHMETIC   HAVE_FC_IEEE_EXCEPTIONS          HAVE_FC_INT_QUAD
 
             HAVE_FC_IOMSG     HAVE_FC_ISO_C_BINDING  HAVE_FC_ISO_FORTRAN_2008
 
        HAVE_FC_LONG_LINES        HAVE_FC_MOVE_ALLOC  HAVE_FC_ON_THE_FLY_SHAPE
 
           HAVE_FC_PRIVATE         HAVE_FC_PROTECTED           HAVE_FC_SHIFTLR
 
         HAVE_FC_STREAM_IO            HAVE_FC_SYSTEM                HAVE_FFTW3
 
          HAVE_FORTRAN2003                 HAVE_HDF5        HAVE_LIBPAW_ABINIT
 
      HAVE_LIBTETRA_ABINIT                HAVE_LIBXC         HAVE_LINALG_AXPBY
 
        HAVE_LINALG_GEMM3M                  HAVE_MPI                 HAVE_MPI2
 
       HAVE_MPI_IALLGATHER       HAVE_MPI_IALLREDUCE        HAVE_MPI_IALLTOALL
 
       HAVE_MPI_IALLTOALLV           HAVE_MPI_IBCAST         HAVE_MPI_IGATHERV
 
        HAVE_MPI_INTEGER16               HAVE_MPI_IO HAVE_MPI_TYPE_CREATE_S...
 
               HAVE_NETCDF       HAVE_NETCDF_FORTRAN             HAVE_OS_LINUX
 
         HAVE_TIMER_ABINIT                                                      
 ++++++++++++++++++++++++++++++++++++++++++++++++++++++++++++++++++++++++++++++

- input  file    -> NiC2O4.in
- output file    -> NiC2O4.out
- root for input  files -> abi
- root for output files -> abo

-instrng: 90 lines of input have been read from file NiC2O4.in


 Please give name of formatted atomic psp file (and finish with a newline character)
 For atom type 1, psp file is ../Ni.pot

 Please give name of formatted atomic psp file (and finish with a newline character)
 For atom type 2, psp file is ../C.pot

 Please give name of formatted atomic psp file (and finish with a newline character)
 For atom type 3, psp file is ../O.pot
  read the values zionpsp= 18.0 , pspcod=   8 , lmax=   2
  read the values zionpsp=  4.0 , pspcod=   8 , lmax=   1
  read the values zionpsp=  6.0 , pspcod=   8 , lmax=   1

 inpspheads: deduce mpsang = 3, n1xccc = 0.

======================================================= 
 invars1m : enter jdtset= 0

 symlatt: the Bravais lattice is mP (primitive monoclinic)
  xred   is defined in input file
 ingeo: takes atomic coordinates from input array xred

 symlatt: the Bravais lattice is mP (primitive monoclinic)

 symlatt: the Bravais lattice is mP (primitive monoclinic)

--- !COMMENT
src_file: m_symfind.F90
src_line: 1020
message: |
    The Bravais lattice determined only from the primitive
    vectors, bravais(1)=  2, is more symmetric
    than the real one, iholohedry=  1, obtained by taking into
    account the atomic positions. Start deforming the primitive vector set.
...


 symlatt: the Bravais lattice is aP (primitive triclinic)
 symspgr: spgroup=   1  P1   (=C1^1)
 initocc_chkneu: initialized the occupation numbers for occopt= 3
    spin up   values:
 getmpw sequential formula gave: 111022

 ====================================================================================================
 Searching for all possible proc distributions for this input with #CPUs<=12:

 ~~~~~~~~~~~~~~~~~~~~~~~~~~~~~~~~~~~~~~~~~~~~~~~~~~~~~~~~~~~~~~~~~~~~~~~~~~~~~
 |       np_spkpt|       npfft|      npband|      bandpp|  #MPI(proc)|    WEIGHT|
 |    1<<    8|    1<<   12|    1<<   12|    1<<   65|    1<<   12|  <=    12|
 ~~~~~~~~~~~~~~~~~~~~~~~~~~~~~~~~~~~~~~~~~~~~~~~~~~~~~~~~~~~~~~~~~~~~~~~~~~~~~
 |           8|           1|           1|           1|           8|     7.767|
 |           4|           3|           1|           1|          12|     7.444|
 |           6|           2|           1|           1|          12|     7.100|
 |           1|           2|           5|           1|          10|     6.684|
 |           5|           2|           1|           1|          10|     6.574|
 |           3|           4|           1|           1|          12|     6.225|
 |           4|           2|           1|           1|           8|     5.917|
 |           2|           6|           1|           1|          12|     5.123|
 |           2|           1|           5|           1|          10|     5.002|
 |           3|           3|           1|           1|           9|     4.841|
 ~~~~~~~~~~~~~~~~~~~~~~~~~~~~~~~~~~~~~~~~~~~~~~~~~~~~~~~~~~~~~~~~~~~~~~~~~~~~~
 Only the best possible choices for nproc are printed...

 >>> Possible (best) choices for the number of bands (nband) are:
     with: np_spkpt=8 npfft=1
     nband=    64 using      8 CPUs =     8 MPI x  1 threads (npband=    1)
     nband=    66 using      8 CPUs =     8 MPI x  1 threads (npband=    1)
     nband=    65 using      8 CPUs =     8 MPI x  1 threads (npband=    1)
 >>> The present nband value (    65) seems to be the best choice!
 ====================================================================================================


 For input ecut=  1.800000E+02 best grid ngfft=     125     120     144
       max ecut=  1.846004E+02

 ==== FFT mesh ====
  FFT mesh divisions ........................   125  120  144
  Augmented FFT divisions ...................   125  121  144
  FFT algorithm .............................   312
  FFT cache size ............................    16
 getmpw: optimal value of mpw= 111027

 Symmetries : space group P1 (#  1); Bravais aP (primitive triclinic)

 getdim_nloc : deduce lmnmax  =  18, lnmax  =   6,
                      lmnmaxso=  18, lnmaxso=   6.
memory: analysis of memory needs
================================================================================
 Values of the parameters that define the memory need of the present run
     intxc =       0    ionmov =       0      iscf =       7    lmnmax =       6
     lnmax =       6     mgfft =     144  mpssoang =       3    mqgrid =    5966
     natom =      14  nloc_mem =       1    nspden =       2   nspinor =       1
    nsppol =       2      nsym =       1    n1xccc =       0    ntypat =       3
    occopt =       3   xclevel =       2
-    mband =          65        mffmem =           1         mkmem =           1
       mpw =      111027          nfft =     2160000          nkpt =           4
================================================================================
P This job should need less than                    1279.652 Mbytes of memory.
  Rough estimation (10% accuracy) of disk space for files :
_ WF disk file :    880.954 Mbytes ; DEN or POT disk file :     32.961 Mbytes.
================================================================================

 Biggest array : f_fftgr(disk), with    527.3458 MBytes.
 memana : allocated an array of    527.346 Mbytes, for testing purposes.
 memana: allocated    1279.652Mbytes, for testing purposes. 
 The job will continue.
--------------------------------------------------------------------------------
------------- Echo of variables that govern the present computation ------------
--------------------------------------------------------------------------------
-
- outvars: echo of selected default values                                      
-   iomode0 =  0 , fftalg0 =312 , wfoptalg0 =  0
-
- outvars: echo of global parameters not present in the input file              
-  max_nthreads =    0
-
 -outvars: echo values of preprocessed input variables --------
 
 These variables are accessible in NetCDF format (abo_OUT.nc)

            acell      1.0000000000E+00  1.0000000000E+00  1.0000000000E+00 Bohr
              amu      5.86900000E+01  1.20110000E+01  1.59994000E+01
        autoparal           1
           diemac      1.00000000E+00
           diemix      4.00000000E-01
             ecut      1.80000000E+02 Hartree
           ecutsm      5.00000000E-01 Hartree
-          fftalg         312
              ixc     -263267
              kpt      2.50000000E-01  2.50000000E-01  2.50000000E-01
                      -2.50000000E-01  2.50000000E-01  2.50000000E-01
                       2.50000000E-01 -2.50000000E-01  2.50000000E-01
                      -2.50000000E-01 -2.50000000E-01  2.50000000E-01
         kptrlatt        2    0    0      0    2    0      0    0    2
          kptrlen      1.92252067E+01
P           mkmem           1
            natom          14
            nband          65
            ngfft         125     120     144
             nkpt           4
-        np_spkpt           8
           nspden           2
           nsppol           2
            nstep          60
             nsym           1
           ntypat           3
              occ      1.000000  1.000000  1.000000  1.000000  1.000000  1.000000
                       1.000000  1.000000  1.000000  1.000000  1.000000  1.000000
                       1.000000  1.000000  1.000000  1.000000  1.000000  1.000000
                       1.000000  1.000000  1.000000  1.000000  1.000000  1.000000
                       1.000000  1.000000  1.000000  1.000000  1.000000  1.000000
                       1.000000  1.000000  1.000000  1.000000  1.000000  1.000000
                       1.000000  1.000000  1.000000  1.000000  1.000000  1.000000
                       1.000000  1.000000  1.000000  1.000000  1.000000  1.000000
                       1.000000  1.000000  0.000000  0.000000  0.000000  0.000000
                       0.000000  0.000000  0.000000  0.000000  0.000000  0.000000
                       0.000000  0.000000  0.000000  0.000000  0.000000
                       1.000000  1.000000  1.000000  1.000000  1.000000  1.000000
                       1.000000  1.000000  1.000000  1.000000  1.000000  1.000000
                       1.000000  1.000000  1.000000  1.000000  1.000000  1.000000
                       1.000000  1.000000  1.000000  1.000000  1.000000  1.000000
                       1.000000  1.000000  1.000000  1.000000  1.000000  1.000000
                       1.000000  1.000000  1.000000  1.000000  1.000000  1.000000
                       1.000000  1.000000  1.000000  1.000000  1.000000  1.000000
                       1.000000  1.000000  1.000000  1.000000  1.000000  1.000000
                       1.000000  1.000000  0.000000  0.000000  0.000000  0.000000
                       0.000000  0.000000  0.000000  0.000000  0.000000  0.000000
                       0.000000  0.000000  0.000000  0.000000  0.000000
                       1.000000  1.000000  1.000000  1.000000  1.000000  1.000000
                       1.000000  1.000000  1.000000  1.000000  1.000000  1.000000
                       1.000000  1.000000  1.000000  1.000000  1.000000  1.000000
                       1.000000  1.000000  1.000000  1.000000  1.000000  1.000000
                       1.000000  1.000000  1.000000  1.000000  1.000000  1.000000
                       1.000000  1.000000  1.000000  1.000000  1.000000  1.000000
                       1.000000  1.000000  1.000000  1.000000  1.000000  1.000000
                       1.000000  1.000000  1.000000  1.000000  1.000000  1.000000
                       1.000000  1.000000  0.000000  0.000000  0.000000  0.000000
                       0.000000  0.000000  0.000000  0.000000  0.000000  0.000000
                       0.000000  0.000000  0.000000  0.000000  0.000000
                       1.000000  1.000000  1.000000  1.000000  1.000000  1.000000
                       1.000000  1.000000  1.000000  1.000000  1.000000  1.000000
                       1.000000  1.000000  1.000000  1.000000  1.000000  1.000000
                       1.000000  1.000000  1.000000  1.000000  1.000000  1.000000
                       1.000000  1.000000  1.000000  1.000000  1.000000  1.000000
                       1.000000  1.000000  1.000000  1.000000  1.000000  1.000000
                       1.000000  1.000000  1.000000  1.000000  1.000000  1.000000
                       1.000000  1.000000  1.000000  1.000000  1.000000  1.000000
                       1.000000  1.000000  0.000000  0.000000  0.000000  0.000000
                       0.000000  0.000000  0.000000  0.000000  0.000000  0.000000
                       0.000000  0.000000  0.000000  0.000000  0.000000
                       1.000000  1.000000  1.000000  1.000000  1.000000  1.000000
                       1.000000  1.000000  1.000000  1.000000  1.000000  1.000000
                       1.000000  1.000000  1.000000  1.000000  1.000000  1.000000
                       1.000000  1.000000  1.000000  1.000000  1.000000  1.000000
                       1.000000  1.000000  1.000000  1.000000  1.000000  1.000000
                       1.000000  1.000000  1.000000  1.000000  1.000000  1.000000
                       1.000000  1.000000  1.000000  1.000000  1.000000  1.000000
                       1.000000  1.000000  1.000000  1.000000  1.000000  1.000000
                       1.000000  1.000000  0.000000  0.000000  0.000000  0.000000
                       0.000000  0.000000  0.000000  0.000000  0.000000  0.000000
                       0.000000  0.000000  0.000000  0.000000  0.000000
                       1.000000  1.000000  1.000000  1.000000  1.000000  1.000000
                       1.000000  1.000000  1.000000  1.000000  1.000000  1.000000
                       1.000000  1.000000  1.000000  1.000000  1.000000  1.000000
                       1.000000  1.000000  1.000000  1.000000  1.000000  1.000000
                       1.000000  1.000000  1.000000  1.000000  1.000000  1.000000
                       1.000000  1.000000  1.000000  1.000000  1.000000  1.000000
                       1.000000  1.000000  1.000000  1.000000  1.000000  1.000000
                       1.000000  1.000000  1.000000  1.000000  1.000000  1.000000
                       1.000000  1.000000  0.000000  0.000000  0.000000  0.000000
                       0.000000  0.000000  0.000000  0.000000  0.000000  0.000000
                       0.000000  0.000000  0.000000  0.000000  0.000000
                       1.000000  1.000000  1.000000  1.000000  1.000000  1.000000
                       1.000000  1.000000  1.000000  1.000000  1.000000  1.000000
                       1.000000  1.000000  1.000000  1.000000  1.000000  1.000000
                       1.000000  1.000000  1.000000  1.000000  1.000000  1.000000
                       1.000000  1.000000  1.000000  1.000000  1.000000  1.000000
                       1.000000  1.000000  1.000000  1.000000  1.000000  1.000000
                       1.000000  1.000000  1.000000  1.000000  1.000000  1.000000
                       1.000000  1.000000  1.000000  1.000000  1.000000  1.000000
                       1.000000  1.000000  0.000000  0.000000  0.000000  0.000000
                       0.000000  0.000000  0.000000  0.000000  0.000000  0.000000
                       0.000000  0.000000  0.000000  0.000000  0.000000
                       1.000000  1.000000  1.000000  1.000000  1.000000  1.000000
                       1.000000  1.000000  1.000000  1.000000  1.000000  1.000000
                       1.000000  1.000000  1.000000  1.000000  1.000000  1.000000
                       1.000000  1.000000  1.000000  1.000000  1.000000  1.000000
                       1.000000  1.000000  1.000000  1.000000  1.000000  1.000000
                       1.000000  1.000000  1.000000  1.000000  1.000000  1.000000
                       1.000000  1.000000  1.000000  1.000000  1.000000  1.000000
                       1.000000  1.000000  1.000000  1.000000  1.000000  1.000000
                       1.000000  1.000000  0.000000  0.000000  0.000000  0.000000
                       0.000000  0.000000  0.000000  0.000000  0.000000  0.000000
                       0.000000  0.000000  0.000000  0.000000  0.000000
           occopt           3
           prtden           0
           prteig           0
          prtkden           1
            prtwf           0
            rprim      0.0000000000E+00  1.0137047334E+01  0.0000000000E+00
                       9.6126033568E+00  0.0000000000E+00  0.0000000000E+00
                       0.0000000000E+00 -5.7455806104E+00 -9.8776109362E+00
           shiftk      5.00000000E-01  5.00000000E-01  5.00000000E-01
          spgroup           1
           spinat      0.0000000000E+00  0.0000000000E+00  1.0000000000E+00
                       0.0000000000E+00  0.0000000000E+00  1.0000000000E+00
                       0.0000000000E+00  0.0000000000E+00  1.0000000000E+00
                       0.0000000000E+00  0.0000000000E+00  1.0000000000E+00
                       0.0000000000E+00  0.0000000000E+00  1.0000000000E+00
                       0.0000000000E+00  0.0000000000E+00  1.0000000000E+00
                       0.0000000000E+00  0.0000000000E+00  1.0000000000E+00
                       0.0000000000E+00  0.0000000000E+00  1.0000000000E+00
                       0.0000000000E+00  0.0000000000E+00  1.0000000000E+00
                       0.0000000000E+00  0.0000000000E+00  1.0000000000E+00
                       0.0000000000E+00  0.0000000000E+00  1.0000000000E+00
                       0.0000000000E+00  0.0000000000E+00  1.0000000000E+00
                       0.0000000000E+00  0.0000000000E+00  1.0000000000E+00
                       0.0000000000E+00  0.0000000000E+00  1.0000000000E+00
           toldfe      1.00000000E-06 Hartree
           tsmear      1.00000000E-03 Hartree
            typat      1  1  2  2  2  2  3  3  3  3  3  3  3  3
          usekden           1
              wtk        0.25000    0.25000    0.25000    0.25000
           xangst      2.5433853058E+00 -1.5202151546E+00 -2.6135032914E+00
                       0.0000000000E+00  0.0000000000E+00  0.0000000000E+00
                       3.1562750365E+00  1.1910186627E+00 -2.1474058874E+00
                       6.1288973068E-01  2.6530605942E+00 -4.6609740399E-01
                       1.9304955751E+00  1.1328454397E+00 -3.0796006954E+00
                       4.4738808809E+00 -3.2919649184E-01 -4.7609091788E+00
                       1.4881550895E+00  2.2345712582E+00 -3.5468271328E+00
                       4.0315403953E+00 -1.4309223104E+00 -4.2936827414E+00
                       3.5986155221E+00  8.9292844179E-02 -1.6801794500E+00
                       1.0552302163E+00  3.7547864128E+00 -9.3332384141E-01
                       3.6404796442E+00  2.3325325213E+00 -1.9145427441E+00
                       1.0970943384E+00  1.5115467357E+00 -6.9896054726E-01
                       1.4462909674E+00 -8.6684189171E-03 -3.3124638386E+00
                       3.9896762732E+00  8.1231736673E-01 -4.5280460355E+00
            xcart      4.8063016784E+00 -2.8727903052E+00 -4.9388054681E+00
                       0.0000000000E+00  0.0000000000E+00  0.0000000000E+00
                       5.9644954190E+00  2.2506990917E+00 -4.0580090233E+00
                       1.1581937406E+00  5.0135579370E+00 -8.8079644479E-01
                       3.6481079377E+00  2.1407676318E+00 -5.8196019129E+00
                       8.4544096161E+00 -6.2209121348E-01 -8.9968144914E+00
                       2.8122055624E+00  4.2227277024E+00 -6.7025319217E+00
                       7.6185072408E+00 -2.7040512841E+00 -8.1138844827E+00
                       6.8003977943E+00  1.6873902112E-01 -3.1750790146E+00
                       1.9940961159E+00  7.0955180076E+00 -1.7637264536E+00
                       6.8795095200E+00  4.4078476613E+00 -3.6179614561E+00
                       2.0732078416E+00  2.8564093675E+00 -1.3208440120E+00
                       2.7330938368E+00 -1.6380937759E-02 -6.2596494801E+00
                       7.5393955152E+00  1.5350573561E+00 -8.5567669242E+00
             xred     -5.0809124433E-18  5.0000000000E-01  5.0000000000E-01
                       0.0000000000E+00  0.0000000000E+00  0.0000000000E+00
                       4.5488100000E-01  6.2048700000E-01  4.1082900000E-01
                       5.4511900000E-01  1.2048700000E-01  8.9171000000E-02
                       5.4511900000E-01  3.7951300000E-01  5.8917100000E-01
                       4.5488100000E-01  8.7951300000E-01  9.1082900000E-01
                       8.0116400000E-01  2.9255400000E-01  6.7855800000E-01
                       1.9883600000E-01  7.9255400000E-01  8.2144200000E-01
                       1.9883600000E-01  7.0744600000E-01  3.2144200000E-01
                       8.0116400000E-01  2.0744600000E-01  1.7855800000E-01
                       6.4242900000E-01  7.1567600000E-01  3.6627900000E-01
                       3.5757100000E-01  2.1567600000E-01  1.3372100000E-01
                       3.5757100000E-01  2.8432400000E-01  6.3372100000E-01
                       6.4242900000E-01  7.8432400000E-01  8.6627900000E-01
            znucl       28.00000    6.00000    8.00000

================================================================================

 chkinp: Checking input parameters for consistency.
 DATA TYPE INFORMATION: 
 REAL:      Data type name: REAL(DP) 
            Kind value:      8
            Precision:      15
            Smallest nonnegligible quantity relative to 1: 0.22204460E-015
            Smallest positive number:                      0.22250739E-307
            Largest representable number:                  0.17976931E+309
 INTEGER:   Data type name: INTEGER(default) 
            Kind value: 4
            Bit size:   32
            Largest representable number: 2147483647
 LOGICAL:   Data type name: LOGICAL 
            Kind value: 4
 CHARACTER: Data type name: CHARACTER             Kind value: 1

  ==== OpenMP parallelism is OFF ====
 
  ==== Using MPI-2 specifications ==== 
  MPI-IO support is ON
  xmpi_tag_ub ................    268435455
  xmpi_bsize_ch ..............            1
  xmpi_bsize_int .............            4
  xmpi_bsize_sp ..............            4
  xmpi_bsize_dp ..............            8
  xmpi_bsize_spc .............            8
  xmpi_bsize_dpc .............           16
  xmpio_bsize_frm ............            4
  xmpi_address_kind ..........            8
  xmpi_offset_kind ...........            8
  MPI_WTICK ..................    1.0000000000000001E-009

================================================================================
== DATASET  1 ==================================================================
-   mpi_nproc: 8, omp_nthreads: -1 (-1 if OMP is not activated)


--- !COMMENT
src_file: m_xgScalapack.F90
src_line: 236
message: |
    xgScalapack in auto mode
...


 getdim_nloc : deduce lmnmax  =  18, lnmax  =   6,
                      lmnmaxso=  18, lnmaxso=   6.
 SCAN exchange of Sun, Ruzsinszky, and Perdew
 J. Sun, A. Ruzsinszky, and J. P. Perdew, Phys. Rev. Lett. 115, 036402 (2015)
 SCAN correlation of Sun, Ruzsinszky, and Perdew
 J. Sun, A. Ruzsinszky, and J. P. Perdew, Phys. Rev. Lett. 115, 036402 (2015)

 Unit cell volume ucvol=  9.6250814E+02 bohr^3
 Angles (23,13,12)=  9.00000000E+01  1.20185586E+02  9.00000000E+01 degrees

 getcut: wavevector=  0.0000  0.0000  0.0000  ngfft= 125 120 144
         ecut(hartree)=    180.000   => boxcut(ratio)=   2.02540
- pspini: atom type   1  psp file is ../Ni.pot
- pspatm: opening atomic psp file    ../Ni.pot
- Ni    ONCVPSP-4.0.1  r_core=   2.18101   2.18101   2.24723
- 28.00000  18.00000    200312                znucl, zion, pspdat
    8   11    2    4       600   0.00000      pspcod,pspxc,lmax,lloc,mmax,r2well

--- !WARNING
src_file: m_pspini.F90
src_line: 1039
message: |
    Pseudopotential file pspxc: 11, not equal to input ixc: -263267.
    These parameters must agree to get the same xc in ABINIT code as in psp construction.
    Action: check psp design or input file.
    Assume experienced user. Execution will continue.
...

    5.99000000000000    0.00000000000000    0.00000000000000   rchrg,fchrg,qchrg
     nproj     2     2     2
     extension_switch     1
  valence charge integrates to:    17.968162128216466     
  pspatm : epsatm=   38.47316822
         --- l  ekb(1:nproj) -->
             0   -3.440917   -0.196078
             1   -5.406223   -1.725842
             2   -7.274254   -2.503385
 pspatm: atomic psp has been read  and splines computed

- pspini: atom type   2  psp file is ../C.pot
- pspatm: opening atomic psp file    ../C.pot
- C     ONCVPSP-4.0.1  r_core=   1.42727   1.38521
-  6.00000   4.00000    200312                znucl, zion, pspdat
    8   11    1    4       600   0.00000      pspcod,pspxc,lmax,lloc,mmax,r2well

--- !WARNING
src_file: m_pspini.F90
src_line: 1039
message: |
    Pseudopotential file pspxc: 11, not equal to input ixc: -263267.
    These parameters must agree to get the same xc in ABINIT code as in psp construction.
    Action: check psp design or input file.
    Assume experienced user. Execution will continue.
...

    5.99000000000000    0.00000000000000    0.00000000000000   rchrg,fchrg,qchrg
     nproj     2     2
     extension_switch     1
  valence charge integrates to:    3.9929454931231523     
  pspatm : epsatm=    2.26998732
         --- l  ekb(1:nproj) -->
             0    7.571912    0.889574
             1   -3.169338   -0.856835
 pspatm: atomic psp has been read  and splines computed

- pspini: atom type   3  psp file is ../O.pot
- pspatm: opening atomic psp file    ../O.pot
- O     ONCVPSP-4.0.1  r_core=   1.28926   1.47061
-  8.00000   6.00000    200312                znucl, zion, pspdat
    8   11    1    4       600   0.00000      pspcod,pspxc,lmax,lloc,mmax,r2well

--- !WARNING
src_file: m_pspini.F90
src_line: 1039
message: |
    Pseudopotential file pspxc: 11, not equal to input ixc: -263267.
    These parameters must agree to get the same xc in ABINIT code as in psp construction.
    Action: check psp design or input file.
    Assume experienced user. Execution will continue.
...

    5.99000000000000    0.00000000000000    0.00000000000000   rchrg,fchrg,qchrg
     nproj     2     2
     extension_switch     1
  valence charge integrates to:    5.9990318584788609     
  pspatm : epsatm=    3.44365635
         --- l  ekb(1:nproj) -->
             0    9.802940    1.339963
             1   -3.661294   -1.085684
 pspatm: atomic psp has been read  and splines computed

   1.13575537E+04                                ecore*ucvol(ha*bohr**3)
 ==== Info on pseudopotentials ====
  Norm-conserving pseudopotentials
  Number of pseudopotentials ..    3
  Number of types of atoms   ..    3
  Scalar calculation (no spin-orbit term)
  Nonlocal part applied using Legendre polynomials
  Max number of non-local projectors over l and type   2
  Highest angular momentum +1 .......   3
  Max number of (l,n)   components ..   6
  Max number of (l,m,n) components ..   6

 Info on the Q-grid used for form factors in spline form: 
   Number of q-points for radial functions ffspl ..   5966
   Number of q-points for vlspl ...................   5966
   vloc is computed in Reciprocal Space
   model core charge treated in real-space

  XC functional for type 1 is 11
  Pseudo valence available: yes
  XC functional for type 2 is 11
  Pseudo valence available: yes
  XC functional for type 3 is 11
  Pseudo valence available: yes

 newkpt: spin channel isppol2 =     1
 wfconv:    65 bands initialized randomly with npw=111027, for ikpt=     1
 newkpt: spin channel isppol2 =     2
_setup2: Arith. and geom. avg. npw (full set) are  111023.000  111023.000
 initro: for itypat=  1, take pseudo charge density from pp file
 initro: for itypat=  2, take pseudo charge density from pp file
 initro: for itypat=  3, take pseudo charge density from pp file

================================================================================

 getcut: wavevector=  0.0000  0.0000  0.0000  ngfft= 125 120 144
         ecut(hartree)=    180.000   => boxcut(ratio)=   2.02540

 1/G**2 cut-off applied in the following step : cutoff-mode = CRYSTAL

 1/G**2 cut-off applied in the following step : cutoff-mode = CRYSTAL

 1/G**2 cut-off applied in the following step : cutoff-mode = CRYSTAL

 ITER STEP NUMBER     1
 Max number of non-self-consistent loops: 2
 newocc: new Fermi energy is       0.117210 , with nelect=    100.000000, Number of bisection calls: 47
 mkrho: echo density (plane-wave part only)
 Total charge density [el/Bohr^3]
      Maximum=    3.0208E+00  at reduced coord.    0.9840    0.9583    0.9583
      Minimum=    2.0614E-03  at reduced coord.    0.9760    0.0000    0.5069
   Integrated=    1.0000E+02
 Spin up density      [el/Bohr^3]
      Maximum=    1.5295E+00  at reduced coord.    0.9920    0.9583    0.9583
      Minimum=    9.5973E-04  at reduced coord.    0.9840    0.0000    0.5069
   Integrated=    5.0712E+01
 Spin down density    [el/Bohr^3]
      Maximum=    1.4961E+00  at reduced coord.    0.9840    0.9583    0.9583
      Minimum=    1.0998E-03  at reduced coord.    0.9680    0.0083    0.5069
   Integrated=    4.9288E+01
 Magnetization (spin up - spin down) [el/Bohr^3]
      Maximum=    1.6013E-01  at reduced coord.    0.0720    0.0417    0.0278
      Minimum=   -7.6764E-03  at reduced coord.    0.0560    0.4500    0.4583
   Integrated=    1.4245E+00
 Relative magnetization (=zeta, between -1 and 1)
      Maximum=    1.0777E-01  at reduced coord.    0.5600    0.4083    0.6181
      Minimum=   -1.0154E-01  at reduced coord.    0.9920    0.8417    0.4861
 mkrho: echo density (plane-wave part only)
 Total kinetic energy density [Ha/Bohr^3]
      Maximum=    1.9904E+01  at reduced coord.    0.0080    0.0000    0.0208
      Minimum=    1.3468E-03  at reduced coord.    0.0320    0.5083    0.9931
   Integrated=    2.4112E+02
 Spin up density      [Ha/Bohr^3]
      Maximum=    1.0076E+01  at reduced coord.    0.0080    0.0000    0.0208
      Minimum=    6.5421E-04  at reduced coord.    0.0320    0.5000    0.9931
   Integrated=    1.2445E+02
 Spin down density    [Ha/Bohr^3]
      Maximum=    9.8641E+00  at reduced coord.    0.0080    0.0000    0.0139
      Minimum=    6.9222E-04  at reduced coord.    0.0320    0.5083    0.9931
   Integrated=    1.1666E+02
 Magnetization (spin up - spin down) [Ha/Bohr^3]
      Maximum=    6.7762E-01  at reduced coord.    0.0080    0.0500    0.0069
      Minimum=   -7.8474E-04  at reduced coord.    0.2400    0.9417    0.0972
   Integrated=    7.7932E+00
 Relative magnetization (=zeta, between -1 and 1)
      Maximum=    1.2740E-01  at reduced coord.    0.4960    0.5000    0.5000
      Minimum=   -7.2335E-02  at reduced coord.    0.9600    0.8833    0.3958
 Total charge density [el/Bohr^3]
      Maximum=    3.0208E+00  at reduced coord.    0.9840    0.9583    0.9583
      Minimum=    2.0614E-03  at reduced coord.    0.9760    0.0000    0.5069
   Integrated=    1.0000E+02
 Spin up density      [el/Bohr^3]
      Maximum=    1.5295E+00  at reduced coord.    0.9920    0.9583    0.9583
      Minimum=    9.5973E-04  at reduced coord.    0.9840    0.0000    0.5069
   Integrated=    5.0712E+01
 Spin down density    [el/Bohr^3]
      Maximum=    1.4961E+00  at reduced coord.    0.9840    0.9583    0.9583
      Minimum=    1.0998E-03  at reduced coord.    0.9680    0.0083    0.5069
   Integrated=    4.9288E+01
 Magnetization (spin up - spin down) [el/Bohr^3]
      Maximum=    1.6013E-01  at reduced coord.    0.0720    0.0417    0.0278
      Minimum=   -7.6764E-03  at reduced coord.    0.0560    0.4500    0.4583
   Integrated=    1.4245E+00
 Relative magnetization (=zeta, between -1 and 1)
      Maximum=    1.0777E-01  at reduced coord.    0.5600    0.4083    0.6181
      Minimum=   -1.0154E-01  at reduced coord.    0.9920    0.8417    0.4861

 1/G**2 cut-off applied in the following step : cutoff-mode = CRYSTAL
 ETOT  1  -457.09518769288    -4.57E+02 3.12E-01 1.14E+05 1.425
 scprqt: <Vxc>= -4.0448531E-01 hartree

 Simple mixing update:
  residual square of the potential:    18220.756010752248
{SCF_istep: 1 , Vnl|psi>: 650 , wall_time: ' 05:24 [minutes] '} <<< TIME

 ITER STEP NUMBER     2
 Max number of non-self-consistent loops: 2
 newocc: new Fermi energy is       0.084150 , with nelect=    100.000000, Number of bisection calls: 48
 mkrho: echo density (plane-wave part only)
 Total charge density [el/Bohr^3]
      Maximum=    3.1459E+00  at reduced coord.    0.9520    0.4833    0.5139
      Minimum=    1.4038E-03  at reduced coord.    0.0000    0.5000    0.0000
   Integrated=    1.0000E+02
 Spin up density      [el/Bohr^3]
      Maximum=    1.6021E+00  at reduced coord.    0.0560    0.4667    0.5208
      Minimum=    6.4319E-04  at reduced coord.    0.0000    0.5000    0.0000
   Integrated=    5.0994E+01
 Spin down density    [el/Bohr^3]
      Maximum=    1.5668E+00  at reduced coord.    0.9520    0.4917    0.5139
      Minimum=    7.5660E-04  at reduced coord.    0.0000    0.0000    0.5000
   Integrated=    4.9006E+01
 Magnetization (spin up - spin down) [el/Bohr^3]
      Maximum=    3.3951E-01  at reduced coord.    0.9600    0.0500    0.9375
      Minimum=   -2.7884E-03  at reduced coord.    0.0080    0.5000    0.5208
   Integrated=    1.9878E+00
 Relative magnetization (=zeta, between -1 and 1)
      Maximum=    2.2384E-01  at reduced coord.    0.0640    0.9167    0.1042
      Minimum=   -8.5746E-02  at reduced coord.    0.0240    0.5417    0.9722
 mkrho: echo density (plane-wave part only)
 Total kinetic energy density [Ha/Bohr^3]
      Maximum=    2.0897E+01  at reduced coord.    0.0160    0.5000    0.5278
      Minimum=    9.9493E-04  at reduced coord.    0.0000    0.5000    0.0000
   Integrated=    2.3911E+02
 Spin up density      [Ha/Bohr^3]
      Maximum=    1.0515E+01  at reduced coord.    0.0160    0.4917    0.5278
      Minimum=    4.6614E-04  at reduced coord.    0.0000    0.5000    0.0000
   Integrated=    1.2381E+02
 Spin down density    [Ha/Bohr^3]
      Maximum=    1.0398E+01  at reduced coord.    0.0080    0.5000    0.5278
      Minimum=    5.2867E-04  at reduced coord.    0.0000    0.0000    0.5000
   Integrated=    1.1530E+02
 Magnetization (spin up - spin down) [Ha/Bohr^3]
      Maximum=    1.4885E+00  at reduced coord.    0.0000    0.0083    0.9514
      Minimum=   -1.4338E-01  at reduced coord.    0.0720    0.4583    0.5278
   Integrated=    8.5087E+00
 Relative magnetization (=zeta, between -1 and 1)
      Maximum=    2.3677E-01  at reduced coord.    0.8880    0.1417    0.8333
      Minimum=   -6.5291E-02  at reduced coord.    0.9920    0.5167    0.9931
 Total charge density [el/Bohr^3]
      Maximum=    3.1459E+00  at reduced coord.    0.9520    0.4833    0.5139
      Minimum=    1.4038E-03  at reduced coord.    0.0000    0.5000    0.0000
   Integrated=    1.0000E+02
 Spin up density      [el/Bohr^3]
      Maximum=    1.6021E+00  at reduced coord.    0.0560    0.4667    0.5208
      Minimum=    6.4319E-04  at reduced coord.    0.0000    0.5000    0.0000
   Integrated=    5.0994E+01
 Spin down density    [el/Bohr^3]
      Maximum=    1.5668E+00  at reduced coord.    0.9520    0.4917    0.5139
      Minimum=    7.5660E-04  at reduced coord.    0.0000    0.0000    0.5000
   Integrated=    4.9006E+01
 Magnetization (spin up - spin down) [el/Bohr^3]
      Maximum=    3.3951E-01  at reduced coord.    0.9600    0.0500    0.9375
      Minimum=   -2.7884E-03  at reduced coord.    0.0080    0.5000    0.5208
   Integrated=    1.9878E+00
 Relative magnetization (=zeta, between -1 and 1)
      Maximum=    2.2384E-01  at reduced coord.    0.0640    0.9167    0.1042
      Minimum=   -8.5746E-02  at reduced coord.    0.0240    0.5417    0.9722
 ETOT  2  -457.80545743831    -7.10E-01 9.21E-03 2.94E+05 1.988
 scprqt: <Vxc>= -4.0807483E-01 hartree

 Pulay update with  1 previous iterations:
 mixing of old trial potential: alpha(m:m-4)=  0.345      0.655
{SCF_istep: 2 , Vnl|psi>: 650 , wall_time: ' 05:15 [minutes] '} <<< TIME

 ITER STEP NUMBER     3
 newocc: new Fermi energy is       0.095975 , with nelect=    100.000000, Number of bisection calls: 47
 mkrho: echo density (plane-wave part only)
 Total charge density [el/Bohr^3]
      Maximum=    3.0617E+00  at reduced coord.    0.9360    0.0167    0.9792
      Minimum=    1.3404E-03  at reduced coord.    0.0000    0.0000    0.5000
   Integrated=    1.0000E+02
 Spin up density      [el/Bohr^3]
      Maximum=    1.5815E+00  at reduced coord.    0.0560    0.0333    0.0208
      Minimum=    6.1958E-04  at reduced coord.    0.0000    0.0000    0.5000
   Integrated=    5.1036E+01
 Spin down density    [el/Bohr^3]
      Maximum=    1.5300E+00  at reduced coord.    0.0240    0.0250    0.9653
      Minimum=    7.2080E-04  at reduced coord.    0.0000    0.0000    0.5000
   Integrated=    4.8964E+01
 Magnetization (spin up - spin down) [el/Bohr^3]
      Maximum=    4.0075E-01  at reduced coord.    0.0720    0.0417    0.0278
      Minimum=   -6.1520E-03  at reduced coord.    0.9120    0.4250    0.4722
   Integrated=    2.0715E+00
 Relative magnetization (=zeta, between -1 and 1)
      Maximum=    2.2660E-01  at reduced coord.    0.9280    0.4083    0.3889
      Minimum=   -7.5925E-02  at reduced coord.    0.0080    0.9667    0.4861
 mkrho: echo density (plane-wave part only)
 Total kinetic energy density [Ha/Bohr^3]
      Maximum=    2.0121E+01  at reduced coord.    0.9920    0.0083    0.9792
      Minimum=    9.6826E-04  at reduced coord.    0.9920    0.0000    0.5000
   Integrated=    2.3712E+02
 Spin up density      [Ha/Bohr^3]
      Maximum=    1.0233E+01  at reduced coord.    0.0000    0.0250    0.0069
      Minimum=    4.5641E-04  at reduced coord.    0.0000    0.0000    0.5000
   Integrated=    1.2362E+02
 Spin down density    [Ha/Bohr^3]
      Maximum=    9.9389E+00  at reduced coord.    0.9920    0.0083    0.9792
      Minimum=    5.1085E-04  at reduced coord.    0.9840    0.0000    0.5000
   Integrated=    1.1350E+02
 Magnetization (spin up - spin down) [Ha/Bohr^3]
      Maximum=    1.3102E+00  at reduced coord.    0.0560    0.9917    0.0139
      Minimum=   -1.9404E-01  at reduced coord.    0.9600    0.0500    0.9444
   Integrated=    1.0129E+01
 Relative magnetization (=zeta, between -1 and 1)
      Maximum=    2.0658E-01  at reduced coord.    0.1680    0.1000    0.0625
      Minimum=   -5.9635E-02  at reduced coord.    0.9920    0.9500    0.4861
 Total charge density [el/Bohr^3]
      Maximum=    3.0617E+00  at reduced coord.    0.9360    0.0167    0.9792
      Minimum=    1.3404E-03  at reduced coord.    0.0000    0.0000    0.5000
   Integrated=    1.0000E+02
 Spin up density      [el/Bohr^3]
      Maximum=    1.5815E+00  at reduced coord.    0.0560    0.0333    0.0208
      Minimum=    6.1958E-04  at reduced coord.    0.0000    0.0000    0.5000
   Integrated=    5.1036E+01
 Spin down density    [el/Bohr^3]
      Maximum=    1.5300E+00  at reduced coord.    0.0240    0.0250    0.9653
      Minimum=    7.2080E-04  at reduced coord.    0.0000    0.0000    0.5000
   Integrated=    4.8964E+01
 Magnetization (spin up - spin down) [el/Bohr^3]
      Maximum=    4.0075E-01  at reduced coord.    0.0720    0.0417    0.0278
      Minimum=   -6.1520E-03  at reduced coord.    0.9120    0.4250    0.4722
   Integrated=    2.0715E+00
 Relative magnetization (=zeta, between -1 and 1)
      Maximum=    2.2660E-01  at reduced coord.    0.9280    0.4083    0.3889
      Minimum=   -7.5925E-02  at reduced coord.    0.0080    0.9667    0.4861
 ETOT  3  -458.66743021168    -8.62E-01 8.37E-03 1.25E+05 2.072
 scprqt: <Vxc>= -4.0761071E-01 hartree

 Pulay update with  2 previous iterations:
 mixing of old trial potential: alpha(m:m-4)=  0.264      0.242      0.494
{SCF_istep: 3 , Vnl|psi>: 315 , wall_time: ' 02:41 [minutes] '} <<< TIME

 ITER STEP NUMBER     4
 newocc: new Fermi energy is       0.107606 , with nelect=    100.000000, Number of bisection calls: 44
 mkrho: echo density (plane-wave part only)
 Total charge density [el/Bohr^3]
      Maximum=    3.0722E+00  at reduced coord.    0.9520    0.4917    0.5139
      Minimum=    1.3494E-03  at reduced coord.    0.0000    0.0000    0.5000
   Integrated=    1.0000E+02
 Spin up density      [el/Bohr^3]
      Maximum=    1.5799E+00  at reduced coord.    0.0560    0.4667    0.5208
      Minimum=    6.2833E-04  at reduced coord.    0.0000    0.0000    0.5000
   Integrated=    5.1001E+01
 Spin down density    [el/Bohr^3]
      Maximum=    1.5301E+00  at reduced coord.    0.0560    0.5167    0.5000
      Minimum=    7.2110E-04  at reduced coord.    0.0000    0.0000    0.5000
   Integrated=    4.8999E+01
 Magnetization (spin up - spin down) [el/Bohr^3]
      Maximum=    4.5826E-01  at reduced coord.    0.9600    0.0500    0.9375
      Minimum=   -3.7129E-03  at reduced coord.    0.0080    0.5083    0.5139
   Integrated=    2.0011E+00
 Relative magnetization (=zeta, between -1 and 1)
      Maximum=    3.5024E-01  at reduced coord.    0.9280    0.0917    0.8889
      Minimum=   -6.8869E-02  at reduced coord.    0.0000    0.9917    0.5000
 mkrho: echo density (plane-wave part only)
 Total kinetic energy density [Ha/Bohr^3]
      Maximum=    2.0165E+01  at reduced coord.    0.0080    0.5083    0.5208
      Minimum=    9.6796E-04  at reduced coord.    0.9920    0.0000    0.5000
   Integrated=    2.3642E+02
 Spin up density      [Ha/Bohr^3]
      Maximum=    1.0218E+01  at reduced coord.    0.0080    0.4833    0.5208
      Minimum=    4.5930E-04  at reduced coord.    0.0000    0.0000    0.5000
   Integrated=    1.2324E+02
 Spin down density    [Ha/Bohr^3]
      Maximum=    1.0002E+01  at reduced coord.    0.9920    0.4917    0.4792
      Minimum=    5.0839E-04  at reduced coord.    0.9920    0.0000    0.5000
   Integrated=    1.1318E+02
 Magnetization (spin up - spin down) [Ha/Bohr^3]
      Maximum=    1.6573E+00  at reduced coord.    0.0000    0.0083    0.9514
      Minimum=   -2.1456E-01  at reduced coord.    0.9600    0.4500    0.4375
   Integrated=    1.0057E+01
 Relative magnetization (=zeta, between -1 and 1)
      Maximum=    2.6787E-01  at reduced coord.    0.8880    0.1333    0.8333
      Minimum=   -5.5565E-02  at reduced coord.    0.0080    0.9833    0.4722
 Total charge density [el/Bohr^3]
      Maximum=    3.0722E+00  at reduced coord.    0.9520    0.4917    0.5139
      Minimum=    1.3494E-03  at reduced coord.    0.0000    0.0000    0.5000
   Integrated=    1.0000E+02
 Spin up density      [el/Bohr^3]
      Maximum=    1.5799E+00  at reduced coord.    0.0560    0.4667    0.5208
      Minimum=    6.2833E-04  at reduced coord.    0.0000    0.0000    0.5000
   Integrated=    5.1001E+01
 Spin down density    [el/Bohr^3]
      Maximum=    1.5301E+00  at reduced coord.    0.0560    0.5167    0.5000
      Minimum=    7.2110E-04  at reduced coord.    0.0000    0.0000    0.5000
   Integrated=    4.8999E+01
 Magnetization (spin up - spin down) [el/Bohr^3]
      Maximum=    4.5826E-01  at reduced coord.    0.9600    0.0500    0.9375
      Minimum=   -3.7129E-03  at reduced coord.    0.0080    0.5083    0.5139
   Integrated=    2.0011E+00
 Relative magnetization (=zeta, between -1 and 1)
      Maximum=    3.5024E-01  at reduced coord.    0.9280    0.0917    0.8889
      Minimum=   -6.8869E-02  at reduced coord.    0.0000    0.9917    0.5000
 ETOT  4  -458.57647070396     9.10E-02 3.68E-03 1.35E+05 2.001
 scprqt: <Vxc>= -4.0740684E-01 hartree

 Pulay update with  3 previous iterations:
 mixing of old trial potential: alpha(m:m-4)=  0.350      0.247     -0.369E-02  0.407
{SCF_istep: 4 , Vnl|psi>: 318 , wall_time: ' 02:42 [minutes] '} <<< TIME

 ITER STEP NUMBER     5
 newocc: new Fermi energy is       0.098944 , with nelect=    100.000000, Number of bisection calls: 46
 mkrho: echo density (plane-wave part only)
 Total charge density [el/Bohr^3]
      Maximum=    3.0527E+00  at reduced coord.    0.0320    0.0250    0.9722
      Minimum=    1.3572E-03  at reduced coord.    0.0000    0.0000    0.5000
   Integrated=    1.0000E+02
 Spin up density      [el/Bohr^3]
      Maximum=    1.5837E+00  at reduced coord.    0.0560    0.0333    0.0208
      Minimum=    6.3762E-04  at reduced coord.    0.0000    0.0000    0.5000
   Integrated=    5.1968E+01
 Spin down density    [el/Bohr^3]
      Maximum=    1.5269E+00  at reduced coord.    0.0240    0.0250    0.9653
      Minimum=    7.1962E-04  at reduced coord.    0.0000    0.0000    0.5000
   Integrated=    4.8032E+01
 Magnetization (spin up - spin down) [el/Bohr^3]
      Maximum=    5.0341E-01  at reduced coord.    0.0720    0.0417    0.0278
      Minimum=   -4.0607E-03  at reduced coord.    0.0080    0.0083    0.9861
   Integrated=    3.9366E+00
 Relative magnetization (=zeta, between -1 and 1)
      Maximum=    3.5499E-01  at reduced coord.    0.9280    0.4083    0.3889
      Minimum=   -6.0516E-02  at reduced coord.    0.0080    0.9833    0.4931
 mkrho: echo density (plane-wave part only)
 Total kinetic energy density [Ha/Bohr^3]
      Maximum=    1.9647E+01  at reduced coord.    0.9920    0.9917    0.9861
      Minimum=    9.7052E-04  at reduced coord.    0.0000    0.0000    0.5000
   Integrated=    2.3709E+02
 Spin up density      [Ha/Bohr^3]
      Maximum=    1.0211E+01  at reduced coord.    0.0000    0.0250    0.0069
      Minimum=    4.6320E-04  at reduced coord.    0.0000    0.0000    0.5000
   Integrated=    1.2782E+02
 Spin down density    [Ha/Bohr^3]
      Maximum=    9.7762E+00  at reduced coord.    0.0000    0.5000    0.5000
      Minimum=    5.0705E-04  at reduced coord.    0.9920    0.0000    0.5000
   Integrated=    1.0926E+02
 Magnetization (spin up - spin down) [Ha/Bohr^3]
      Maximum=    2.3833E+00  at reduced coord.    0.9760    0.5167    0.5278
      Minimum=   -1.8136E-01  at reduced coord.    0.9280    0.5417    0.4722
   Integrated=    1.8562E+01
 Relative magnetization (=zeta, between -1 and 1)
      Maximum=    3.0090E-01  at reduced coord.    0.8880    0.1417    0.8403
      Minimum=   -4.7742E-02  at reduced coord.    0.0080    0.5167    0.9722
 Total charge density [el/Bohr^3]
      Maximum=    3.0527E+00  at reduced coord.    0.0320    0.0250    0.9722
      Minimum=    1.3572E-03  at reduced coord.    0.0000    0.0000    0.5000
   Integrated=    1.0000E+02
 Spin up density      [el/Bohr^3]
      Maximum=    1.5837E+00  at reduced coord.    0.0560    0.0333    0.0208
      Minimum=    6.3762E-04  at reduced coord.    0.0000    0.0000    0.5000
   Integrated=    5.1968E+01
 Spin down density    [el/Bohr^3]
      Maximum=    1.5269E+00  at reduced coord.    0.0240    0.0250    0.9653
      Minimum=    7.1962E-04  at reduced coord.    0.0000    0.0000    0.5000
   Integrated=    4.8032E+01
 Magnetization (spin up - spin down) [el/Bohr^3]
      Maximum=    5.0341E-01  at reduced coord.    0.0720    0.0417    0.0278
      Minimum=   -4.0607E-03  at reduced coord.    0.0080    0.0083    0.9861
   Integrated=    3.9366E+00
 Relative magnetization (=zeta, between -1 and 1)
      Maximum=    3.5499E-01  at reduced coord.    0.9280    0.4083    0.3889
      Minimum=   -6.0516E-02  at reduced coord.    0.0080    0.9833    0.4931
 ETOT  5  -459.03575624319    -4.59E-01 1.11E-03 5.97E+04 3.937
 scprqt: <Vxc>= -4.0713842E-01 hartree

 Pulay update with  4 previous iterations:
 mixing of old trial potential: alpha(m:m-4)=  0.358      0.185      0.595E-01  0.945E-02  0.388
{SCF_istep: 5 , Vnl|psi>: 316 , wall_time: ' 02:41 [minutes] '} <<< TIME

 ITER STEP NUMBER     6
 newocc: new Fermi energy is       0.099152 , with nelect=    100.000000, Number of bisection calls: 45
 mkrho: echo density (plane-wave part only)
 Total charge density [el/Bohr^3]
      Maximum=    3.0553E+00  at reduced coord.    0.9680    0.5250    0.5278
      Minimum=    1.3591E-03  at reduced coord.    0.0000    0.0000    0.5000
   Integrated=    1.0000E+02
 Spin up density      [el/Bohr^3]
      Maximum=    1.5701E+00  at reduced coord.    0.0560    0.4667    0.5208
      Minimum=    6.3997E-04  at reduced coord.    0.0000    0.0000    0.5000
   Integrated=    5.1992E+01
 Spin down density    [el/Bohr^3]
      Maximum=    1.5299E+00  at reduced coord.    0.9760    0.5250    0.5347
      Minimum=    7.1909E-04  at reduced coord.    0.0000    0.0000    0.5000
   Integrated=    4.8008E+01
 Magnetization (spin up - spin down) [el/Bohr^3]
      Maximum=    5.0866E-01  at reduced coord.    0.9600    0.0500    0.9375
      Minimum=   -8.9982E-03  at reduced coord.    0.0320    0.4833    0.5486
   Integrated=    3.9844E+00
 Relative magnetization (=zeta, between -1 and 1)
      Maximum=    3.8177E-01  at reduced coord.    0.0720    0.9083    0.1111
      Minimum=   -5.8306E-02  at reduced coord.    0.0000    0.9917    0.5000
 mkrho: echo density (plane-wave part only)
 Total kinetic energy density [Ha/Bohr^3]
      Maximum=    1.9664E+01  at reduced coord.    0.0080    0.5083    0.5139
      Minimum=    9.7133E-04  at reduced coord.    0.0000    0.0000    0.5000
   Integrated=    2.3710E+02
 Spin up density      [Ha/Bohr^3]
      Maximum=    1.0173E+01  at reduced coord.    0.0000    0.4917    0.5208
      Minimum=    4.6470E-04  at reduced coord.    0.0000    0.0000    0.5000
   Integrated=    1.2786E+02
 Spin down density    [Ha/Bohr^3]
      Maximum=    9.7716E+00  at reduced coord.    0.0000    0.5000    0.5000
      Minimum=    5.0648E-04  at reduced coord.    0.9920    0.0000    0.5000
   Integrated=    1.0924E+02
 Magnetization (spin up - spin down) [Ha/Bohr^3]
      Maximum=    2.4518E+00  at reduced coord.    0.0240    0.0167    0.9722
      Minimum=   -1.8791E-01  at reduced coord.    0.0320    0.5417    0.4653
   Integrated=    1.8612E+01
 Relative magnetization (=zeta, between -1 and 1)
      Maximum=    3.1362E-01  at reduced coord.    0.8880    0.1333    0.8333
      Minimum=   -4.6929E-02  at reduced coord.    0.0080    0.9833    0.4722
 Total charge density [el/Bohr^3]
      Maximum=    3.0553E+00  at reduced coord.    0.9680    0.5250    0.5278
      Minimum=    1.3591E-03  at reduced coord.    0.0000    0.0000    0.5000
   Integrated=    1.0000E+02
 Spin up density      [el/Bohr^3]
      Maximum=    1.5701E+00  at reduced coord.    0.0560    0.4667    0.5208
      Minimum=    6.3997E-04  at reduced coord.    0.0000    0.0000    0.5000
   Integrated=    5.1992E+01
 Spin down density    [el/Bohr^3]
      Maximum=    1.5299E+00  at reduced coord.    0.9760    0.5250    0.5347
      Minimum=    7.1909E-04  at reduced coord.    0.0000    0.0000    0.5000
   Integrated=    4.8008E+01
 Magnetization (spin up - spin down) [el/Bohr^3]
      Maximum=    5.0866E-01  at reduced coord.    0.9600    0.0500    0.9375
      Minimum=   -8.9982E-03  at reduced coord.    0.0320    0.4833    0.5486
   Integrated=    3.9844E+00
 Relative magnetization (=zeta, between -1 and 1)
      Maximum=    3.8177E-01  at reduced coord.    0.0720    0.9083    0.1111
      Minimum=   -5.8306E-02  at reduced coord.    0.0000    0.9917    0.5000
 ETOT  6  -459.04815255637    -1.24E-02 1.12E-03 5.31E+04 3.984
 scprqt: <Vxc>= -4.0714700E-01 hartree

 Pulay update with  5 previous iterations:
 mixing of old trial potential: alpha(m:m-4)=   2.02      -1.50      0.654E-01  0.703E-01 -0.112E-02
{SCF_istep: 6 , Vnl|psi>: 310 , wall_time: ' 02:39 [minutes] '} <<< TIME

 ITER STEP NUMBER     7
 newocc: new Fermi energy is       0.100824 , with nelect=    100.000000, Number of bisection calls: 31
 mkrho: echo density (plane-wave part only)
 Total charge density [el/Bohr^3]
      Maximum=    3.0548E+00  at reduced coord.    0.0240    0.0250    0.9653
      Minimum=    1.3715E-03  at reduced coord.    0.0000    0.0000    0.5000
   Integrated=    1.0000E+02
 Spin up density      [el/Bohr^3]
      Maximum=    1.5762E+00  at reduced coord.    0.0560    0.0333    0.0208
      Minimum=    6.4793E-04  at reduced coord.    0.0000    0.0000    0.5000
   Integrated=    5.2000E+01
 Spin down density    [el/Bohr^3]
      Maximum=    1.5326E+00  at reduced coord.    0.0240    0.0250    0.9653
      Minimum=    7.2355E-04  at reduced coord.    0.0000    0.0000    0.5000
   Integrated=    4.8000E+01
 Magnetization (spin up - spin down) [el/Bohr^3]
      Maximum=    5.3837E-01  at reduced coord.    0.0720    0.4583    0.5278
      Minimum=   -1.2276E-02  at reduced coord.    0.0320    0.4833    0.5486
   Integrated=    4.0000E+00
 Relative magnetization (=zeta, between -1 and 1)
      Maximum=    4.0156E-01  at reduced coord.    0.0720    0.9083    0.1111
      Minimum=   -5.5296E-02  at reduced coord.    0.0160    0.9833    0.4931
 mkrho: echo density (plane-wave part only)
 Total kinetic energy density [Ha/Bohr^3]
      Maximum=    1.9625E+01  at reduced coord.    0.9920    0.0083    0.9861
      Minimum=    9.7711E-04  at reduced coord.    0.0000    0.0000    0.5000
   Integrated=    2.3687E+02
 Spin up density      [Ha/Bohr^3]
      Maximum=    1.0178E+01  at reduced coord.    0.9920    0.0250    0.9931
      Minimum=    4.6802E-04  at reduced coord.    0.0000    0.0000    0.5000
   Integrated=    1.2801E+02
 Spin down density    [Ha/Bohr^3]
      Maximum=    9.7915E+00  at reduced coord.    0.0000    0.0000    0.0000
      Minimum=    5.0901E-04  at reduced coord.    0.9920    0.0000    0.5000
   Integrated=    1.0887E+02
 Magnetization (spin up - spin down) [Ha/Bohr^3]
      Maximum=    2.5562E+00  at reduced coord.    0.0240    0.0167    0.9722
      Minimum=   -1.4191E-01  at reduced coord.    0.0320    0.5417    0.4653
   Integrated=    1.9140E+01
 Relative magnetization (=zeta, between -1 and 1)
      Maximum=    3.1461E-01  at reduced coord.    0.8880    0.1333    0.8333
      Minimum=   -4.5272E-02  at reduced coord.    0.0080    0.9833    0.4722
 Total charge density [el/Bohr^3]
      Maximum=    3.0548E+00  at reduced coord.    0.0240    0.0250    0.9653
      Minimum=    1.3715E-03  at reduced coord.    0.0000    0.0000    0.5000
   Integrated=    1.0000E+02
 Spin up density      [el/Bohr^3]
      Maximum=    1.5762E+00  at reduced coord.    0.0560    0.0333    0.0208
      Minimum=    6.4793E-04  at reduced coord.    0.0000    0.0000    0.5000
   Integrated=    5.2000E+01
 Spin down density    [el/Bohr^3]
      Maximum=    1.5326E+00  at reduced coord.    0.0240    0.0250    0.9653
      Minimum=    7.2355E-04  at reduced coord.    0.0000    0.0000    0.5000
   Integrated=    4.8000E+01
 Magnetization (spin up - spin down) [el/Bohr^3]
      Maximum=    5.3837E-01  at reduced coord.    0.0720    0.4583    0.5278
      Minimum=   -1.2276E-02  at reduced coord.    0.0320    0.4833    0.5486
   Integrated=    4.0000E+00
 Relative magnetization (=zeta, between -1 and 1)
      Maximum=    4.0156E-01  at reduced coord.    0.0720    0.9083    0.1111
      Minimum=   -5.5296E-02  at reduced coord.    0.0160    0.9833    0.4931
 ETOT  7  -459.07967960011    -3.15E-02 5.83E-04 3.83E+04 4.000
 scprqt: <Vxc>= -4.0722529E-01 hartree

 Pulay update with  6 previous iterations:
 mixing of old trial potential: alpha(m:m-4)=   2.56     -0.238      -1.35     -0.100     -0.972E-01
{SCF_istep: 7 , Vnl|psi>: 319 , wall_time: ' 02:42 [minutes] '} <<< TIME

 ITER STEP NUMBER     8
 newocc: new Fermi energy is       0.096173 , with nelect=    100.000000, Number of bisection calls: 6
 mkrho: echo density (plane-wave part only)
 Total charge density [el/Bohr^3]
      Maximum=    3.0712E+00  at reduced coord.    0.9680    0.5250    0.5278
      Minimum=    1.4007E-03  at reduced coord.    0.0000    0.5000    0.0000
   Integrated=    1.0000E+02
 Spin up density      [el/Bohr^3]
      Maximum=    1.5996E+00  at reduced coord.    0.0560    0.4667    0.5208
      Minimum=    6.7066E-04  at reduced coord.    0.0000    0.5000    0.0000
   Integrated=    5.2000E+01
 Spin down density    [el/Bohr^3]
      Maximum=    1.5428E+00  at reduced coord.    0.9760    0.5250    0.5347
      Minimum=    7.2999E-04  at reduced coord.    0.0000    0.5000    0.0000
   Integrated=    4.8000E+01
 Magnetization (spin up - spin down) [el/Bohr^3]
      Maximum=    6.1050E-01  at reduced coord.    0.0720    0.0417    0.0278
      Minimum=   -2.1781E-02  at reduced coord.    0.0000    0.0500    0.0000
   Integrated=    4.0000E+00
 Relative magnetization (=zeta, between -1 and 1)
      Maximum=    4.5557E-01  at reduced coord.    0.0720    0.9083    0.1111
      Minimum=   -4.4311E-02  at reduced coord.    0.0320    0.9167    0.4653
 mkrho: echo density (plane-wave part only)
 Total kinetic energy density [Ha/Bohr^3]
      Maximum=    1.9662E+01  at reduced coord.    0.0080    0.5083    0.5139
      Minimum=    9.9048E-04  at reduced coord.    0.0000    0.5000    0.0000
   Integrated=    2.3702E+02
 Spin up density      [Ha/Bohr^3]
      Maximum=    1.0244E+01  at reduced coord.    0.0160    0.5250    0.5069
      Minimum=    4.7797E-04  at reduced coord.    0.0000    0.5000    0.0000
   Integrated=    1.2852E+02
 Spin down density    [Ha/Bohr^3]
      Maximum=    9.8597E+00  at reduced coord.    0.0000    0.0000    0.0000
      Minimum=    5.1252E-04  at reduced coord.    0.0000    0.5000    0.0000
   Integrated=    1.0849E+02
 Magnetization (spin up - spin down) [Ha/Bohr^3]
      Maximum=    2.7951E+00  at reduced coord.    0.0240    0.0167    0.9722
      Minimum=   -1.7334E-01  at reduced coord.    0.0000    0.0000    0.0000
   Integrated=    2.0030E+01
 Relative magnetization (=zeta, between -1 and 1)
      Maximum=    3.1292E-01  at reduced coord.    0.8880    0.1333    0.8403
      Minimum=   -3.7423E-02  at reduced coord.    0.0160    0.9167    0.4514
 Total charge density [el/Bohr^3]
      Maximum=    3.0712E+00  at reduced coord.    0.9680    0.5250    0.5278
      Minimum=    1.4007E-03  at reduced coord.    0.0000    0.5000    0.0000
   Integrated=    1.0000E+02
 Spin up density      [el/Bohr^3]
      Maximum=    1.5996E+00  at reduced coord.    0.0560    0.4667    0.5208
      Minimum=    6.7066E-04  at reduced coord.    0.0000    0.5000    0.0000
   Integrated=    5.2000E+01
 Spin down density    [el/Bohr^3]
      Maximum=    1.5428E+00  at reduced coord.    0.9760    0.5250    0.5347
      Minimum=    7.2999E-04  at reduced coord.    0.0000    0.5000    0.0000
   Integrated=    4.8000E+01
 Magnetization (spin up - spin down) [el/Bohr^3]
      Maximum=    6.1050E-01  at reduced coord.    0.0720    0.0417    0.0278
      Minimum=   -2.1781E-02  at reduced coord.    0.0000    0.0500    0.0000
   Integrated=    4.0000E+00
 Relative magnetization (=zeta, between -1 and 1)
      Maximum=    4.5557E-01  at reduced coord.    0.0720    0.9083    0.1111
      Minimum=   -4.4311E-02  at reduced coord.    0.0320    0.9167    0.4653
 ETOT  8  -459.11180308643    -3.21E-02 8.26E-04 1.58E+04 4.000
 scprqt: <Vxc>= -4.0721593E-01 hartree

 Pulay update with  7 previous iterations:
 mixing of old trial potential: alpha(m:m-4)=   1.52      -1.17       1.86     -0.745     -0.167
{SCF_istep: 8 , Vnl|psi>: 319 , wall_time: ' 02:43 [minutes] '} <<< TIME

 ITER STEP NUMBER     9
 newocc: new Fermi energy is       0.092344 , with nelect=    100.000000, Number of bisection calls: 6
 mkrho: echo density (plane-wave part only)
 Total charge density [el/Bohr^3]
      Maximum=    3.0762E+00  at reduced coord.    0.9680    0.5250    0.5278
      Minimum=    1.4147E-03  at reduced coord.    0.0000    0.5000    0.0000
   Integrated=    1.0000E+02
 Spin up density      [el/Bohr^3]
      Maximum=    1.6139E+00  at reduced coord.    0.0560    0.4667    0.5208
      Minimum=    6.8790E-04  at reduced coord.    0.0000    0.5000    0.0000
   Integrated=    5.2000E+01
 Spin down density    [el/Bohr^3]
      Maximum=    1.5471E+00  at reduced coord.    0.9760    0.5250    0.5347
      Minimum=    7.2676E-04  at reduced coord.    0.0000    0.5000    0.0000
   Integrated=    4.8000E+01
 Magnetization (spin up - spin down) [el/Bohr^3]
      Maximum=    6.6521E-01  at reduced coord.    0.0720    0.4583    0.5278
      Minimum=   -2.8810E-02  at reduced coord.    0.0000    0.4500    0.5000
   Integrated=    4.0000E+00
 Relative magnetization (=zeta, between -1 and 1)
      Maximum=    4.9200E-01  at reduced coord.    0.0720    0.9083    0.1111
      Minimum=   -3.6975E-02  at reduced coord.    0.8080    0.5333    0.1667
 mkrho: echo density (plane-wave part only)
 Total kinetic energy density [Ha/Bohr^3]
      Maximum=    1.9636E+01  at reduced coord.    0.0080    0.5083    0.5139
      Minimum=    9.9585E-04  at reduced coord.    0.0000    0.5000    0.0000
   Integrated=    2.3701E+02
 Spin up density      [Ha/Bohr^3]
      Maximum=    1.0272E+01  at reduced coord.    0.0160    0.5167    0.5208
      Minimum=    4.8524E-04  at reduced coord.    0.0000    0.5000    0.0000
   Integrated=    1.2882E+02
 Spin down density    [Ha/Bohr^3]
      Maximum=    9.8937E+00  at reduced coord.    0.0000    0.5000    0.5000
      Minimum=    5.1061E-04  at reduced coord.    0.0000    0.5000    0.0000
   Integrated=    1.0819E+02
 Magnetization (spin up - spin down) [Ha/Bohr^3]
      Maximum=    2.9507E+00  at reduced coord.    0.0240    0.0167    0.9722
      Minimum=   -2.7265E-01  at reduced coord.    0.0000    0.0000    0.0000
   Integrated=    2.0625E+01
 Relative magnetization (=zeta, between -1 and 1)
      Maximum=    3.2130E-01  at reduced coord.    0.0640    0.9083    0.9167
      Minimum=   -3.3789E-02  at reduced coord.    0.8160    0.5917    0.2014
 Total charge density [el/Bohr^3]
      Maximum=    3.0762E+00  at reduced coord.    0.9680    0.5250    0.5278
      Minimum=    1.4147E-03  at reduced coord.    0.0000    0.5000    0.0000
   Integrated=    1.0000E+02
 Spin up density      [el/Bohr^3]
      Maximum=    1.6139E+00  at reduced coord.    0.0560    0.4667    0.5208
      Minimum=    6.8790E-04  at reduced coord.    0.0000    0.5000    0.0000
   Integrated=    5.2000E+01
 Spin down density    [el/Bohr^3]
      Maximum=    1.5471E+00  at reduced coord.    0.9760    0.5250    0.5347
      Minimum=    7.2676E-04  at reduced coord.    0.0000    0.5000    0.0000
   Integrated=    4.8000E+01
 Magnetization (spin up - spin down) [el/Bohr^3]
      Maximum=    6.6521E-01  at reduced coord.    0.0720    0.4583    0.5278
      Minimum=   -2.8810E-02  at reduced coord.    0.0000    0.4500    0.5000
   Integrated=    4.0000E+00
 Relative magnetization (=zeta, between -1 and 1)
      Maximum=    4.9200E-01  at reduced coord.    0.0720    0.9083    0.1111
      Minimum=   -3.6975E-02  at reduced coord.    0.8080    0.5333    0.1667
 ETOT  9  -459.12959637005    -1.78E-02 3.48E-04 9.76E+03 4.000
 scprqt: <Vxc>= -4.0705838E-01 hartree

 Pulay update with  7 previous iterations:
 mixing of old trial potential: alpha(m:m-4)=   1.27     -0.201      -1.41       2.14     -0.375
{SCF_istep: 9 , Vnl|psi>: 319 , wall_time: ' 02:42 [minutes] '} <<< TIME

 ITER STEP NUMBER    10
 newocc: new Fermi energy is       0.092330 , with nelect=    100.000000, Number of bisection calls: 6
 mkrho: echo density (plane-wave part only)
 Total charge density [el/Bohr^3]
      Maximum=    3.0726E+00  at reduced coord.    0.9680    0.5250    0.5278
      Minimum=    1.4135E-03  at reduced coord.    0.0000    0.5000    0.0000
   Integrated=    1.0000E+02
 Spin up density      [el/Bohr^3]
      Maximum=    1.6141E+00  at reduced coord.    0.0560    0.4667    0.5208
      Minimum=    6.9363E-04  at reduced coord.    0.0000    0.5000    0.0000
   Integrated=    5.2000E+01
 Spin down density    [el/Bohr^3]
      Maximum=    1.5449E+00  at reduced coord.    0.0240    0.0250    0.9653
      Minimum=    7.1982E-04  at reduced coord.    0.0000    0.5000    0.0000
   Integrated=    4.8000E+01
 Magnetization (spin up - spin down) [el/Bohr^3]
      Maximum=    6.8383E-01  at reduced coord.    0.0720    0.4583    0.5278
      Minimum=   -2.8472E-02  at reduced coord.    0.0000    0.4500    0.5000
   Integrated=    4.0000E+00
 Relative magnetization (=zeta, between -1 and 1)
      Maximum=    5.0731E-01  at reduced coord.    0.0720    0.9083    0.1111
      Minimum=   -3.7249E-02  at reduced coord.    0.8480    0.5833    0.2778
 mkrho: echo density (plane-wave part only)
 Total kinetic energy density [Ha/Bohr^3]
      Maximum=    1.9596E+01  at reduced coord.    0.9920    0.4917    0.4861
      Minimum=    9.9322E-04  at reduced coord.    0.0000    0.0000    0.5000
   Integrated=    2.3698E+02
 Spin up density      [Ha/Bohr^3]
      Maximum=    1.0262E+01  at reduced coord.    0.9840    0.0167    0.9792
      Minimum=    4.8718E-04  at reduced coord.    0.0000    0.0000    0.5000
   Integrated=    1.2883E+02
 Spin down density    [Ha/Bohr^3]
      Maximum=    9.8829E+00  at reduced coord.    0.0000    0.5000    0.5000
      Minimum=    5.0604E-04  at reduced coord.    0.0000    0.0000    0.5000
   Integrated=    1.0815E+02
 Magnetization (spin up - spin down) [Ha/Bohr^3]
      Maximum=    3.0089E+00  at reduced coord.    0.0240    0.4833    0.4722
      Minimum=   -2.8516E-01  at reduced coord.    0.0000    0.5000    0.5000
   Integrated=    2.0688E+01
 Relative magnetization (=zeta, between -1 and 1)
      Maximum=    3.2463E-01  at reduced coord.    0.9120    0.1083    0.8681
      Minimum=   -3.2200E-02  at reduced coord.    0.8160    0.5917    0.2014
 Total charge density [el/Bohr^3]
      Maximum=    3.0726E+00  at reduced coord.    0.9680    0.5250    0.5278
      Minimum=    1.4135E-03  at reduced coord.    0.0000    0.5000    0.0000
   Integrated=    1.0000E+02
 Spin up density      [el/Bohr^3]
      Maximum=    1.6141E+00  at reduced coord.    0.0560    0.4667    0.5208
      Minimum=    6.9363E-04  at reduced coord.    0.0000    0.5000    0.0000
   Integrated=    5.2000E+01
 Spin down density    [el/Bohr^3]
      Maximum=    1.5449E+00  at reduced coord.    0.0240    0.0250    0.9653
      Minimum=    7.1982E-04  at reduced coord.    0.0000    0.5000    0.0000
   Integrated=    4.8000E+01
 Magnetization (spin up - spin down) [el/Bohr^3]
      Maximum=    6.8383E-01  at reduced coord.    0.0720    0.4583    0.5278
      Minimum=   -2.8472E-02  at reduced coord.    0.0000    0.4500    0.5000
   Integrated=    4.0000E+00
 Relative magnetization (=zeta, between -1 and 1)
      Maximum=    5.0731E-01  at reduced coord.    0.0720    0.9083    0.1111
      Minimum=   -3.7249E-02  at reduced coord.    0.8480    0.5833    0.2778
 ETOT 10  -459.13495733363    -5.36E-03 3.50E-04 5.20E+03 4.000
 scprqt: <Vxc>= -4.0679542E-01 hartree

 Pulay update with  7 previous iterations:
 mixing of old trial potential: alpha(m:m-4)=   1.35     -0.339     -0.616E-01 -0.792      0.603
{SCF_istep: 10 , Vnl|psi>: 319 , wall_time: ' 02:43 [minutes] '} <<< TIME

 ITER STEP NUMBER    11
 newocc: new Fermi energy is       0.128120 , with nelect=    100.000000, Number of bisection calls: 7
 mkrho: echo density (plane-wave part only)
 Total charge density [el/Bohr^3]
      Maximum=    3.0661E+00  at reduced coord.    0.0240    0.0250    0.9653
      Minimum=    1.4037E-03  at reduced coord.    0.0000    0.0000    0.5000
   Integrated=    1.0000E+02
 Spin up density      [el/Bohr^3]
      Maximum=    1.6056E+00  at reduced coord.    0.0560    0.4667    0.5208
      Minimum=    6.9024E-04  at reduced coord.    0.0000    0.0000    0.5000
   Integrated=    5.2000E+01
 Spin down density    [el/Bohr^3]
      Maximum=    1.5411E+00  at reduced coord.    0.0240    0.0250    0.9653
      Minimum=    7.1349E-04  at reduced coord.    0.0000    0.0000    0.5000
   Integrated=    4.8000E+01
 Magnetization (spin up - spin down) [el/Bohr^3]
      Maximum=    6.7291E-01  at reduced coord.    0.0720    0.4583    0.5278
      Minimum=   -2.5037E-02  at reduced coord.    0.0160    0.0167    0.9722
   Integrated=    4.0000E+00
 Relative magnetization (=zeta, between -1 and 1)
      Maximum=    5.1038E-01  at reduced coord.    0.9280    0.4083    0.3889
      Minimum=   -3.4971E-02  at reduced coord.    0.8480    0.5833    0.2778
 mkrho: echo density (plane-wave part only)
 Total kinetic energy density [Ha/Bohr^3]
      Maximum=    1.9561E+01  at reduced coord.    0.0080    0.5083    0.5139
      Minimum=    9.8701E-04  at reduced coord.    0.0000    0.0000    0.5000
   Integrated=    2.3681E+02
 Spin up density      [Ha/Bohr^3]
      Maximum=    1.0231E+01  at reduced coord.    0.0160    0.9833    0.0208
      Minimum=    4.8524E-04  at reduced coord.    0.0000    0.0000    0.5000
   Integrated=    1.2864E+02
 Spin down density    [Ha/Bohr^3]
      Maximum=    9.8515E+00  at reduced coord.    0.0000    0.5000    0.5000
      Minimum=    5.0176E-04  at reduced coord.    0.0000    0.0000    0.5000
   Integrated=    1.0817E+02
 Magnetization (spin up - spin down) [Ha/Bohr^3]
      Maximum=    3.0036E+00  at reduced coord.    0.9760    0.5167    0.5278
      Minimum=   -2.4726E-01  at reduced coord.    0.0000    0.5000    0.5000
   Integrated=    2.0475E+01
 Relative magnetization (=zeta, between -1 and 1)
      Maximum=    3.2000E-01  at reduced coord.    0.9120    0.1167    0.8681
      Minimum=   -2.7679E-02  at reduced coord.    0.8080    0.6083    0.2083
 Total charge density [el/Bohr^3]
      Maximum=    3.0661E+00  at reduced coord.    0.0240    0.0250    0.9653
      Minimum=    1.4037E-03  at reduced coord.    0.0000    0.0000    0.5000
   Integrated=    1.0000E+02
 Spin up density      [el/Bohr^3]
      Maximum=    1.6056E+00  at reduced coord.    0.0560    0.4667    0.5208
      Minimum=    6.9024E-04  at reduced coord.    0.0000    0.0000    0.5000
   Integrated=    5.2000E+01
 Spin down density    [el/Bohr^3]
      Maximum=    1.5411E+00  at reduced coord.    0.0240    0.0250    0.9653
      Minimum=    7.1349E-04  at reduced coord.    0.0000    0.0000    0.5000
   Integrated=    4.8000E+01
 Magnetization (spin up - spin down) [el/Bohr^3]
      Maximum=    6.7291E-01  at reduced coord.    0.0720    0.4583    0.5278
      Minimum=   -2.5037E-02  at reduced coord.    0.0160    0.0167    0.9722
   Integrated=    4.0000E+00
 Relative magnetization (=zeta, between -1 and 1)
      Maximum=    5.1038E-01  at reduced coord.    0.9280    0.4083    0.3889
      Minimum=   -3.4971E-02  at reduced coord.    0.8480    0.5833    0.2778
 ETOT 11  -459.13526070694    -3.03E-04 2.93E-04 1.77E+03 4.000
 scprqt: <Vxc>= -4.0668656E-01 hartree

 Pulay update with  7 previous iterations:
 mixing of old trial potential: alpha(m:m-4)=   1.85      -1.33      0.585      0.427      -1.32
{SCF_istep: 11 , Vnl|psi>: 319 , wall_time: ' 02:42 [minutes] '} <<< TIME

 ITER STEP NUMBER    12
 newocc: new Fermi energy is       0.127172 , with nelect=    100.000000, Number of bisection calls: 7
 mkrho: echo density (plane-wave part only)
 Total charge density [el/Bohr^3]
      Maximum=    3.0719E+00  at reduced coord.    0.9680    0.5250    0.5278
      Minimum=    1.4110E-03  at reduced coord.    0.0000    0.0000    0.5000
   Integrated=    1.0000E+02
 Spin up density      [el/Bohr^3]
      Maximum=    1.6046E+00  at reduced coord.    0.0560    0.4667    0.5208
      Minimum=    6.9643E-04  at reduced coord.    0.0000    0.0000    0.5000
   Integrated=    5.2000E+01
 Spin down density    [el/Bohr^3]
      Maximum=    1.5424E+00  at reduced coord.    0.0240    0.0250    0.9653
      Minimum=    7.1459E-04  at reduced coord.    0.0000    0.0000    0.5000
   Integrated=    4.8000E+01
 Magnetization (spin up - spin down) [el/Bohr^3]
      Maximum=    6.6040E-01  at reduced coord.    0.0720    0.4583    0.5278
      Minimum=   -2.4220E-02  at reduced coord.    0.0160    0.0167    0.9722
   Integrated=    4.0000E+00
 Relative magnetization (=zeta, between -1 and 1)
      Maximum=    5.0532E-01  at reduced coord.    0.9280    0.0917    0.8889
      Minimum=   -3.2695E-02  at reduced coord.    0.8480    0.5833    0.2847
 mkrho: echo density (plane-wave part only)
 Total kinetic energy density [Ha/Bohr^3]
      Maximum=    1.9598E+01  at reduced coord.    0.9920    0.4917    0.4861
      Minimum=    9.8973E-04  at reduced coord.    0.0000    0.0000    0.5000
   Integrated=    2.3695E+02
 Spin up density      [Ha/Bohr^3]
      Maximum=    1.0250E+01  at reduced coord.    0.0160    0.5167    0.5208
      Minimum=    4.8836E-04  at reduced coord.    0.0000    0.0000    0.5000
   Integrated=    1.2863E+02
 Spin down density    [Ha/Bohr^3]
      Maximum=    9.8578E+00  at reduced coord.    0.0000    0.5000    0.5000
      Minimum=    5.0136E-04  at reduced coord.    0.0000    0.0000    0.5000
   Integrated=    1.0832E+02
 Magnetization (spin up - spin down) [Ha/Bohr^3]
      Maximum=    2.9892E+00  at reduced coord.    0.0240    0.4833    0.4722
      Minimum=   -2.3857E-01  at reduced coord.    0.0000    0.5000    0.5000
   Integrated=    2.0312E+01
 Relative magnetization (=zeta, between -1 and 1)
      Maximum=    3.1861E-01  at reduced coord.    0.9120    0.1167    0.8611
      Minimum=   -2.3973E-02  at reduced coord.    0.8080    0.6083    0.2083
 Total charge density [el/Bohr^3]
      Maximum=    3.0719E+00  at reduced coord.    0.9680    0.5250    0.5278
      Minimum=    1.4110E-03  at reduced coord.    0.0000    0.0000    0.5000
   Integrated=    1.0000E+02
 Spin up density      [el/Bohr^3]
      Maximum=    1.6046E+00  at reduced coord.    0.0560    0.4667    0.5208
      Minimum=    6.9643E-04  at reduced coord.    0.0000    0.0000    0.5000
   Integrated=    5.2000E+01
 Spin down density    [el/Bohr^3]
      Maximum=    1.5424E+00  at reduced coord.    0.0240    0.0250    0.9653
      Minimum=    7.1459E-04  at reduced coord.    0.0000    0.0000    0.5000
   Integrated=    4.8000E+01
 Magnetization (spin up - spin down) [el/Bohr^3]
      Maximum=    6.6040E-01  at reduced coord.    0.0720    0.4583    0.5278
      Minimum=   -2.4220E-02  at reduced coord.    0.0160    0.0167    0.9722
   Integrated=    4.0000E+00
 Relative magnetization (=zeta, between -1 and 1)
      Maximum=    5.0532E-01  at reduced coord.    0.9280    0.0917    0.8889
      Minimum=   -3.2695E-02  at reduced coord.    0.8480    0.5833    0.2847
 ETOT 12  -459.13610732707    -8.47E-04 1.62E-04 6.05E+02 4.000
 scprqt: <Vxc>= -4.0671104E-01 hartree

 Pulay update with  7 previous iterations:
 mixing of old trial potential: alpha(m:m-4)=   1.00      0.195     -0.410      0.281      0.196
{SCF_istep: 12 , Vnl|psi>: 319 , wall_time: ' 02:42 [minutes] '} <<< TIME

 ITER STEP NUMBER    13
 newocc: new Fermi energy is       0.126193 , with nelect=    100.000000, Number of bisection calls: 7
 mkrho: echo density (plane-wave part only)
 Total charge density [el/Bohr^3]
      Maximum=    3.0739E+00  at reduced coord.    0.9680    0.5250    0.5278
      Minimum=    1.4135E-03  at reduced coord.    0.0000    0.5000    0.0000
   Integrated=    1.0000E+02
 Spin up density      [el/Bohr^3]
      Maximum=    1.6056E+00  at reduced coord.    0.0560    0.4667    0.5208
      Minimum=    6.9915E-04  at reduced coord.    0.0000    0.5000    0.0000
   Integrated=    5.2000E+01
 Spin down density    [el/Bohr^3]
      Maximum=    1.5436E+00  at reduced coord.    0.9760    0.5250    0.5347
      Minimum=    7.1433E-04  at reduced coord.    0.0000    0.5000    0.0000
   Integrated=    4.8000E+01
 Magnetization (spin up - spin down) [el/Bohr^3]
      Maximum=    6.6036E-01  at reduced coord.    0.0720    0.0417    0.0278
      Minimum=   -2.5146E-02  at reduced coord.    0.0480    0.5167    0.5208
   Integrated=    4.0000E+00
 Relative magnetization (=zeta, between -1 and 1)
      Maximum=    5.0934E-01  at reduced coord.    0.9280    0.0917    0.8889
      Minimum=   -3.2346E-02  at reduced coord.    0.8480    0.5833    0.2847
 mkrho: echo density (plane-wave part only)
 Total kinetic energy density [Ha/Bohr^3]
      Maximum=    1.9604E+01  at reduced coord.    0.0080    0.5083    0.5139
      Minimum=    9.9080E-04  at reduced coord.    0.0000    0.0000    0.5000
   Integrated=    2.3696E+02
 Spin up density      [Ha/Bohr^3]
      Maximum=    1.0257E+01  at reduced coord.    0.0160    0.5167    0.5208
      Minimum=    4.8971E-04  at reduced coord.    0.0000    0.0000    0.5000
   Integrated=    1.2863E+02
 Spin down density    [Ha/Bohr^3]
      Maximum=    9.8641E+00  at reduced coord.    0.0000    0.5000    0.5000
      Minimum=    5.0109E-04  at reduced coord.    0.0000    0.0000    0.5000
   Integrated=    1.0832E+02
 Magnetization (spin up - spin down) [Ha/Bohr^3]
      Maximum=    2.9890E+00  at reduced coord.    0.9760    0.5167    0.5278
      Minimum=   -2.4990E-01  at reduced coord.    0.0000    0.5000    0.5000
   Integrated=    2.0310E+01
 Relative magnetization (=zeta, between -1 and 1)
      Maximum=    3.1890E-01  at reduced coord.    0.9120    0.1167    0.8611
      Minimum=   -2.3060E-02  at reduced coord.    0.8080    0.6083    0.2083
 Total charge density [el/Bohr^3]
      Maximum=    3.0739E+00  at reduced coord.    0.9680    0.5250    0.5278
      Minimum=    1.4135E-03  at reduced coord.    0.0000    0.5000    0.0000
   Integrated=    1.0000E+02
 Spin up density      [el/Bohr^3]
      Maximum=    1.6056E+00  at reduced coord.    0.0560    0.4667    0.5208
      Minimum=    6.9915E-04  at reduced coord.    0.0000    0.5000    0.0000
   Integrated=    5.2000E+01
[...]
                       6.1459864273E-03 -5.5884132397E-03 -4.5773222043E-03
                      -6.1528317313E-03 -5.5784085637E-03 -4.5848428966E-03
                      -6.1451277103E-03  5.5828948923E-03  4.5778686524E-03
                       5.9559626318E-03 -9.6861965798E-03  4.4495196815E-03
                       5.9437604499E-03  9.6765832686E-03 -4.4267737284E-03
                      -5.9569354475E-03  9.6880790750E-03 -4.4495801521E-03
                      -5.9437502733E-03 -9.6773915667E-03  4.4268764341E-03
                      -8.6047757833E-03 -1.3661327406E-02 -3.8913193426E-03
                      -8.5997465721E-03  1.3672575834E-02  3.8928192993E-03
                       8.6101519437E-03  1.3663531068E-02  3.8936087596E-03
                       8.5966794863E-03 -1.3670790143E-02 -3.8914179234E-03
-          fftalg         312
              ixc     -263267
              kpt      2.50000000E-01  2.50000000E-01  2.50000000E-01
                      -2.50000000E-01  2.50000000E-01  2.50000000E-01
                       2.50000000E-01 -2.50000000E-01  2.50000000E-01
                      -2.50000000E-01 -2.50000000E-01  2.50000000E-01
         kptrlatt        2    0    0      0    2    0      0    0    2
          kptrlen      1.92252067E+01
P           mkmem           1
            natom          14
            nband          65
            ngfft         125     120     144
             nkpt           4
-        np_spkpt           8
           nspden           2
           nsppol           2
            nstep          60
             nsym           1
           ntypat           3
              occ      1.000000  1.000000  1.000000  1.000000  1.000000  1.000000
                       1.000000  1.000000  1.000000  1.000000  1.000000  1.000000
                       1.000000  1.000000  1.000000  1.000000  1.000000  1.000000
                       1.000000  1.000000  1.000000  1.000000  1.000000  1.000000
                       1.000000  1.000000  1.000000  1.000000  1.000000  1.000000
                       1.000000  1.000000  1.000000  1.000000  1.000000  1.000000
                       1.000000  1.000000  1.000000  1.000000  1.000000  1.000000
                       1.000000  1.000000  1.000000  1.000000  1.000000  1.000000
                       1.000000  1.000000  1.000000  1.000000  0.000000  0.000000
                       0.000000  0.000000  0.000000  0.000000  0.000000  0.000000
                       0.000000  0.000000  0.000000  0.000000  0.000000
                       1.000000  1.000000  1.000000  1.000000  1.000000  1.000000
                       1.000000  1.000000  1.000000  1.000000  1.000000  1.000000
                       1.000000  1.000000  1.000000  1.000000  1.000000  1.000000
                       1.000000  1.000000  1.000000  1.000000  1.000000  1.000000
                       1.000000  1.000000  1.000000  1.000000  1.000000  1.000000
                       1.000000  1.000000  1.000000  1.000000  1.000000  1.000000
                       1.000000  1.000000  1.000000  1.000000  1.000000  1.000000
                       1.000000  1.000000  1.000000  1.000000  1.000000  1.000000
                       1.000000  1.000000  1.000000  1.000000  0.000000  0.000000
                       0.000000  0.000000  0.000000  0.000000  0.000000  0.000000
                       0.000000  0.000000  0.000000  0.000000  0.000000
                       1.000000  1.000000  1.000000  1.000000  1.000000  1.000000
                       1.000000  1.000000  1.000000  1.000000  1.000000  1.000000
                       1.000000  1.000000  1.000000  1.000000  1.000000  1.000000
                       1.000000  1.000000  1.000000  1.000000  1.000000  1.000000
                       1.000000  1.000000  1.000000  1.000000  1.000000  1.000000
                       1.000000  1.000000  1.000000  1.000000  1.000000  1.000000
                       1.000000  1.000000  1.000000  1.000000  1.000000  1.000000
                       1.000000  1.000000  1.000000  1.000000  1.000000  1.000000
                       1.000000  1.000000  1.000000  1.000000  0.000000  0.000000
                       0.000000  0.000000  0.000000  0.000000  0.000000  0.000000
                       0.000000  0.000000  0.000000  0.000000  0.000000
                       1.000000  1.000000  1.000000  1.000000  1.000000  1.000000
                       1.000000  1.000000  1.000000  1.000000  1.000000  1.000000
                       1.000000  1.000000  1.000000  1.000000  1.000000  1.000000
                       1.000000  1.000000  1.000000  1.000000  1.000000  1.000000
                       1.000000  1.000000  1.000000  1.000000  1.000000  1.000000
                       1.000000  1.000000  1.000000  1.000000  1.000000  1.000000
                       1.000000  1.000000  1.000000  1.000000  1.000000  1.000000
                       1.000000  1.000000  1.000000  1.000000  1.000000  1.000000
                       1.000000  1.000000  1.000000  1.000000  0.000000  0.000000
                       0.000000  0.000000  0.000000  0.000000  0.000000  0.000000
                       0.000000  0.000000  0.000000  0.000000  0.000000
                       1.000000  1.000000  1.000000  1.000000  1.000000  1.000000
                       1.000000  1.000000  1.000000  1.000000  1.000000  1.000000
                       1.000000  1.000000  1.000000  1.000000  1.000000  1.000000
                       1.000000  1.000000  1.000000  1.000000  1.000000  1.000000
                       1.000000  1.000000  1.000000  1.000000  1.000000  1.000000
                       1.000000  1.000000  1.000000  1.000000  1.000000  1.000000
                       1.000000  1.000000  1.000000  1.000000  1.000000  1.000000
                       1.000000  1.000000  1.000000  1.000000  1.000000  1.000000
                       0.000000  0.000000  0.000000  0.000000  0.000000  0.000000
                       0.000000  0.000000  0.000000  0.000000  0.000000  0.000000
                       0.000000  0.000000  0.000000  0.000000  0.000000
                       1.000000  1.000000  1.000000  1.000000  1.000000  1.000000
                       1.000000  1.000000  1.000000  1.000000  1.000000  1.000000
                       1.000000  1.000000  1.000000  1.000000  1.000000  1.000000
                       1.000000  1.000000  1.000000  1.000000  1.000000  1.000000
                       1.000000  1.000000  1.000000  1.000000  1.000000  1.000000
                       1.000000  1.000000  1.000000  1.000000  1.000000  1.000000
                       1.000000  1.000000  1.000000  1.000000  1.000000  1.000000
                       1.000000  1.000000  1.000000  1.000000  1.000000  1.000000
                       0.000000  0.000000  0.000000  0.000000  0.000000  0.000000
                       0.000000  0.000000  0.000000  0.000000  0.000000  0.000000
                       0.000000  0.000000  0.000000  0.000000  0.000000
                       1.000000  1.000000  1.000000  1.000000  1.000000  1.000000
                       1.000000  1.000000  1.000000  1.000000  1.000000  1.000000
                       1.000000  1.000000  1.000000  1.000000  1.000000  1.000000
                       1.000000  1.000000  1.000000  1.000000  1.000000  1.000000
                       1.000000  1.000000  1.000000  1.000000  1.000000  1.000000
                       1.000000  1.000000  1.000000  1.000000  1.000000  1.000000
                       1.000000  1.000000  1.000000  1.000000  1.000000  1.000000
                       1.000000  1.000000  1.000000  1.000000  1.000000  1.000000
                       0.000000  0.000000  0.000000  0.000000  0.000000  0.000000
                       0.000000  0.000000  0.000000  0.000000  0.000000  0.000000
                       0.000000  0.000000  0.000000  0.000000  0.000000
                       1.000000  1.000000  1.000000  1.000000  1.000000  1.000000
                       1.000000  1.000000  1.000000  1.000000  1.000000  1.000000
                       1.000000  1.000000  1.000000  1.000000  1.000000  1.000000
                       1.000000  1.000000  1.000000  1.000000  1.000000  1.000000
                       1.000000  1.000000  1.000000  1.000000  1.000000  1.000000
                       1.000000  1.000000  1.000000  1.000000  1.000000  1.000000
                       1.000000  1.000000  1.000000  1.000000  1.000000  1.000000
                       1.000000  1.000000  1.000000  1.000000  1.000000  1.000000
                       0.000000  0.000000  0.000000  0.000000  0.000000  0.000000
                       0.000000  0.000000  0.000000  0.000000  0.000000  0.000000
                       0.000000  0.000000  0.000000  0.000000  0.000000
           occopt           3
           prtden           0
           prteig           0
          prtkden           1
            prtwf           0
            rprim      0.0000000000E+00  1.0137047334E+01  0.0000000000E+00
                       9.6126033568E+00  0.0000000000E+00  0.0000000000E+00
                       0.0000000000E+00 -5.7455806104E+00 -9.8776109362E+00
           shiftk      5.00000000E-01  5.00000000E-01  5.00000000E-01
          spgroup           1
           spinat      0.0000000000E+00  0.0000000000E+00  1.0000000000E+00
                       0.0000000000E+00  0.0000000000E+00  1.0000000000E+00
                       0.0000000000E+00  0.0000000000E+00  1.0000000000E+00
                       0.0000000000E+00  0.0000000000E+00  1.0000000000E+00
                       0.0000000000E+00  0.0000000000E+00  1.0000000000E+00
                       0.0000000000E+00  0.0000000000E+00  1.0000000000E+00
                       0.0000000000E+00  0.0000000000E+00  1.0000000000E+00
                       0.0000000000E+00  0.0000000000E+00  1.0000000000E+00
                       0.0000000000E+00  0.0000000000E+00  1.0000000000E+00
                       0.0000000000E+00  0.0000000000E+00  1.0000000000E+00
                       0.0000000000E+00  0.0000000000E+00  1.0000000000E+00
                       0.0000000000E+00  0.0000000000E+00  1.0000000000E+00
                       0.0000000000E+00  0.0000000000E+00  1.0000000000E+00
                       0.0000000000E+00  0.0000000000E+00  1.0000000000E+00
           strten      1.3081827401E-02  1.2993129150E-02  1.3058616573E-02
                       6.7242245903E-06 -7.4136096431E-08  4.1265484940E-08
           toldfe      1.00000000E-06 Hartree
           tsmear      1.00000000E-03 Hartree
            typat      1  1  2  2  2  2  3  3  3  3  3  3  3  3
          usekden           1
              wtk        0.25000    0.25000    0.25000    0.25000
           xangst      2.5433853058E+00 -1.5202151546E+00 -2.6135032914E+00
                       0.0000000000E+00  0.0000000000E+00  0.0000000000E+00
                       3.1562750365E+00  1.1910186627E+00 -2.1474058874E+00
                       6.1288973068E-01  2.6530605942E+00 -4.6609740399E-01
                       1.9304955751E+00  1.1328454397E+00 -3.0796006954E+00
                       4.4738808809E+00 -3.2919649184E-01 -4.7609091788E+00
                       1.4881550895E+00  2.2345712582E+00 -3.5468271328E+00
                       4.0315403953E+00 -1.4309223104E+00 -4.2936827414E+00
                       3.5986155221E+00  8.9292844179E-02 -1.6801794500E+00
                       1.0552302163E+00  3.7547864128E+00 -9.3332384141E-01
                       3.6404796442E+00  2.3325325213E+00 -1.9145427441E+00
                       1.0970943384E+00  1.5115467357E+00 -6.9896054726E-01
                       1.4462909674E+00 -8.6684189171E-03 -3.3124638386E+00
                       3.9896762732E+00  8.1231736673E-01 -4.5280460355E+00
            xcart      4.8063016784E+00 -2.8727903052E+00 -4.9388054681E+00
                       0.0000000000E+00  0.0000000000E+00  0.0000000000E+00
                       5.9644954190E+00  2.2506990917E+00 -4.0580090233E+00
                       1.1581937406E+00  5.0135579370E+00 -8.8079644479E-01
                       3.6481079377E+00  2.1407676318E+00 -5.8196019129E+00
                       8.4544096161E+00 -6.2209121348E-01 -8.9968144914E+00
                       2.8122055624E+00  4.2227277024E+00 -6.7025319217E+00
                       7.6185072408E+00 -2.7040512841E+00 -8.1138844827E+00
                       6.8003977943E+00  1.6873902112E-01 -3.1750790146E+00
                       1.9940961159E+00  7.0955180076E+00 -1.7637264536E+00
                       6.8795095200E+00  4.4078476613E+00 -3.6179614561E+00
                       2.0732078416E+00  2.8564093675E+00 -1.3208440120E+00
                       2.7330938368E+00 -1.6380937759E-02 -6.2596494801E+00
                       7.5393955152E+00  1.5350573561E+00 -8.5567669242E+00
             xred     -5.0809124433E-18  5.0000000000E-01  5.0000000000E-01
                       0.0000000000E+00  0.0000000000E+00  0.0000000000E+00
                       4.5488100000E-01  6.2048700000E-01  4.1082900000E-01
                       5.4511900000E-01  1.2048700000E-01  8.9171000000E-02
                       5.4511900000E-01  3.7951300000E-01  5.8917100000E-01
                       4.5488100000E-01  8.7951300000E-01  9.1082900000E-01
                       8.0116400000E-01  2.9255400000E-01  6.7855800000E-01
                       1.9883600000E-01  7.9255400000E-01  8.2144200000E-01
                       1.9883600000E-01  7.0744600000E-01  3.2144200000E-01
                       8.0116400000E-01  2.0744600000E-01  1.7855800000E-01
                       6.4242900000E-01  7.1567600000E-01  3.6627900000E-01
                       3.5757100000E-01  2.1567600000E-01  1.3372100000E-01
                       3.5757100000E-01  2.8432400000E-01  6.3372100000E-01
                       6.4242900000E-01  7.8432400000E-01  8.6627900000E-01
            znucl       28.00000    6.00000    8.00000

================================================================================
  

================================================================================

 Suggested references for the acknowledgment of ABINIT usage.

 The users of ABINIT have little formal obligations with respect to the ABINIT group
 (those specified in the GNU General Public License, http://www.gnu.org/copyleft/gpl.txt).
 However, it is common practice in the scientific literature,
 to acknowledge the efforts of people that have made the research possible.
 In this spirit, please find below suggested citations of work written by ABINIT developers,
 corresponding to implementations inside of ABINIT that you have used in the present run.
 Note also that it will be of great value to readers of publications presenting these results,
 to read papers enabling them to understand the theoretical formalism and details
 of the ABINIT implementation.
 For information on why they are suggested, see also https://docs.abinit.org/theory/acknowledgments.
-
- [1] Libxc: A library of exchange and correlation functionals for density functional theory.
- M.A.L. Marques, M.J.T. Oliveira, T. Burnus, Computer Physics Communications 183, 2227 (2012).
- Comment: to be cited when LibXC is used (negative value of ixc)
- Strong suggestion to cite this paper.
- DOI and bibtex: see https://docs.abinit.org/theory/bibliography/#marques2012
-
- [2] The Abinit project: Impact, environment and recent developments.
- Computer Phys. Comm. 248, 107042 (2020).
- X.Gonze, B. Amadon, G. Antonius, F.Arnardi, L.Baguet, J.-M.Beuken,
- J.Bieder, F.Bottin, J.Bouchet, E.Bousquet, N.Brouwer, F.Bruneval,
- G.Brunin, T.Cavignac, J.-B. Charraud, Wei Chen, M.Cote, S.Cottenier,
- J.Denier, G.Geneste, Ph.Ghosez, M.Giantomassi, Y.Gillet, O.Gingras,
- D.R.Hamann, G.Hautier, Xu He, N.Helbig, N.Holzwarth, Y.Jia, F.Jollet,
- W.Lafargue-Dit-Hauret, K.Lejaeghere, M.A.L.Marques, A.Martin, C.Martins,
- H.P.C. Miranda, F.Naccarato, K. Persson, G.Petretto, V.Planes, Y.Pouillon,
- S.Prokhorenko, F.Ricci, G.-M.Rignanese, A.H.Romero, M.M.Schmitt, M.Torrent,
- M.J.van Setten, B.Van Troeye, M.J.Verstraete, G.Zerah and J.W.Zwanzig
- Comment: the fifth generic paper describing the ABINIT project.
- Note that a version of this paper, that is not formatted for Computer Phys. Comm. 
- is available at https://www.abinit.org/sites/default/files/ABINIT20.pdf .
- The licence allows the authors to put it on the Web.
- DOI and bibtex: see https://docs.abinit.org/theory/bibliography/#gonze2020
-
- [3] Optimized norm-conserving Vanderbilt pseudopotentials.
- D.R. Hamann, Phys. Rev. B 88, 085117 (2013).
- Comment: Some pseudopotential generated using the ONCVPSP code were used.
- DOI and bibtex: see https://docs.abinit.org/theory/bibliography/#hamann2013
-
- [4] ABINIT: Overview, and focus on selected capabilities
- J. Chem. Phys. 152, 124102 (2020).
- A. Romero, D.C. Allan, B. Amadon, G. Antonius, T. Applencourt, L.Baguet,
- J.Bieder, F.Bottin, J.Bouchet, E.Bousquet, F.Bruneval,
- G.Brunin, D.Caliste, M.Cote,
- J.Denier, C. Dreyer, Ph.Ghosez, M.Giantomassi, Y.Gillet, O.Gingras,
- D.R.Hamann, G.Hautier, F.Jollet, G. Jomard,
- A.Martin, 
- H.P.C. Miranda, F.Naccarato, G.Petretto, N.A. Pike, V.Planes,
- S.Prokhorenko, T. Rangel, F.Ricci, G.-M.Rignanese, M.Royo, M.Stengel, M.Torrent,
- M.J.van Setten, B.Van Troeye, M.J.Verstraete, J.Wiktor, J.W.Zwanziger, and X.Gonze.
- Comment: a global overview of ABINIT, with focus on selected capabilities .
- Note that a version of this paper, that is not formatted for J. Chem. Phys 
- is available at https://www.abinit.org/sites/default/files/ABINIT20_JPC.pdf .
- The licence allows the authors to put it on the Web.
- DOI and bibtex: see https://docs.abinit.org/theory/bibliography/#romero2020
-
- [5] Recent developments in the ABINIT software package.
- Computer Phys. Comm. 205, 106 (2016).
- X.Gonze, F.Jollet, F.Abreu Araujo, D.Adams, B.Amadon, T.Applencourt,
- C.Audouze, J.-M.Beuken, J.Bieder, A.Bokhanchuk, E.Bousquet, F.Bruneval
- D.Caliste, M.Cote, F.Dahm, F.Da Pieve, M.Delaveau, M.Di Gennaro,
- B.Dorado, C.Espejo, G.Geneste, L.Genovese, A.Gerossier, M.Giantomassi,
- Y.Gillet, D.R.Hamann, L.He, G.Jomard, J.Laflamme Janssen, S.Le Roux,
- A.Levitt, A.Lherbier, F.Liu, I.Lukacevic, A.Martin, C.Martins,
- M.J.T.Oliveira, S.Ponce, Y.Pouillon, T.Rangel, G.-M.Rignanese,
- A.H.Romero, B.Rousseau, O.Rubel, A.A.Shukri, M.Stankovski, M.Torrent,
- M.J.Van Setten, B.Van Troeye, M.J.Verstraete, D.Waroquier, J.Wiktor,
- B.Xu, A.Zhou, J.W.Zwanziger.
- Comment: the fourth generic paper describing the ABINIT project.
- Note that a version of this paper, that is not formatted for Computer Phys. Comm. 
- is available at https://www.abinit.org/sites/default/files/ABINIT16.pdf .
- The licence allows the authors to put it on the Web.
- DOI and bibtex: see https://docs.abinit.org/theory/bibliography/#gonze2016
 Proc.   0 individual time (sec): cpu=       3892.4  wall=       3908.7

 Calculation completed.
.Delivered   0 WARNINGs and   0 COMMENTs to log file.

--- !FinalSummary
program: abinit
version: 9.6.2
start_datetime: Thu Dec 08 01:27:22 2022
end_datetime: Thu Dec 08 02:32:31 2022
overall_cpu_time:       31180.1
overall_wall_time:       31270.4
exit_requested_by_user: no 
timelimit: 0
pseudos: 
    Ni  : 6ed2f4ef33f542dbb8bccaf193f9ee1b
    C   : 0671db42fbc6781d44a36978545fd691
    O   : ec29db0878725605673bf3262559bcee
usepaw: 0
mpi_procs: 12
omp_threads: 1
num_warnings: 0
num_comments: 0
...
---------------------------------------
Begin Slurm Epilog: Dec-08-2022 02:32:31
Job ID:        157966
Array Job ID:  _4294967294
User ID:       bzhang376
Account:       gts-phanish6
Job name:      AbiNiC2O4
Resources:     cpu=12,mem=84G,node=1
Rsrc Used:     cput=13:02:48,vmem=8316K,walltime=01:05:14,mem=7340K,energy_used=0
Partition:     cpu-small
QOS:           inferno
Nodes:         atl1-1-02-004-5-2
---------------------------------------
