---------------------------------------
Begin Slurm Prolog: Dec-07-2022 20:27:01
Job ID:    155641
User ID:   bzhang376
Account:   gts-phanish6
Job name:  AbiNiC2O4
Partition: cpu-small
QOS:       inferno
---------------------------------------
  ABINIT 9.6.2
  
 DeprecationWarning: 

     The files file has been deprecated in Abinit9 and will be removed in Abinit10.
     Use the syntax `abinit t01.abi` where t01.abi is an input with pseudopotentials e.g.

            pseudos = "al.psp8, as.psp8"


  Give name for formatted input file: 
NiC2O4.in
  Give name for formatted output file:
NIC2O4.out
  Give root name for generic input files:
abi
  Give root name for generic output files:
abo
  Give root name for generic temporary files:
tmp

.Version 9.6.2 of ABINIT 
.(MPI version, prepared for a x86_64_linux_gnu10.3 computer) 

.Copyright (C) 1998-2021 ABINIT group . 
 ABINIT comes with ABSOLUTELY NO WARRANTY.
 It is free software, and you are welcome to redistribute it
 under certain conditions (GNU General Public License,
 see ~abinit/COPYING or http://www.gnu.org/copyleft/gpl.txt).

 ABINIT is a project of the Universite Catholique de Louvain,
 Corning Inc. and other collaborators, see ~abinit/doc/developers/contributors.txt .
 Please read https://docs.abinit.org/theory/acknowledgments for suggested
 acknowledgments of the ABINIT effort.
 For more information, see https://www.abinit.org .

.Starting date : Wed  7 Dec 2022.
- ( at 20h27 )
  

 ++++++++++++++++++++++++++++++++++++++++++++++++++++++++++++++++++++++++++++++

 === Build Information === 
  Version       : 9.6.2
  Build target  : x86_64_linux_gnu10.3
  Build date    : 20221111

 === Compiler Suite === 
  C compiler       : gnu10.3
  C++ compiler     : gnu10.3
  Fortran compiler : gnu10.3
  CFLAGS           : -g -O2 -mtune=native -march=native
  CXXFLAGS         : -g -O2 -mtune=native -march=native
  FCFLAGS          : -g -ffree-line-length-none -fallow-argument-mismatch     -I/usr/loc ...
  FC_LDFLAGS       : 

 === Optimizations === 
  Debug level        : basic
  Optimization level : standard
  Architecture       : intel_xeon

 === Multicore === 
  Parallel build : yes
  Parallel I/O   : 
  openMP support : no
  GPU support    : 

 === Connectors / Fallbacks === 
  LINALG flavor  : openblas
  FFT flavor     : fftw3
  HDF5           : yes
  NetCDF         : yes
  NetCDF Fortran : yes
  LibXC          : yes
  Wannier90      : no

 === Experimental features === 
  Exports             : 
  GW double-precision : 

 ++++++++++++++++++++++++++++++++++++++++++++++++++++++++++++++++++++++++++++++


 ++++++++++++++++++++++++++++++++++++++++++++++++++++++++++++++++++++++++++++++
 Default optimizations:
   -O2 -mtune=native -march=native


 Optimizations for 43_ptgroups:
   -O0


 ++++++++++++++++++++++++++++++++++++++++++++++++++++++++++++++++++++++++++++++


 ++++++++++++++++++++++++++++++++++++++++++++++++++++++++++++++++++++++++++++++
 CPP options activated during the build:

                    CC_GNU                   CXX_GNU                    FC_GNU
 
              HAVE_ATOMPAW HAVE_FC_ALLOCATABLE_DT...             HAVE_FC_ASYNC
 
         HAVE_FC_BACKTRACE  HAVE_FC_COMMAND_ARGUMENT      HAVE_FC_COMMAND_LINE
 
        HAVE_FC_CONTIGUOUS           HAVE_FC_CPUTIME              HAVE_FC_EXIT
 
             HAVE_FC_FLUSH             HAVE_FC_GAMMA            HAVE_FC_GETENV
 
   HAVE_FC_IEEE_ARITHMETIC   HAVE_FC_IEEE_EXCEPTIONS          HAVE_FC_INT_QUAD
 
             HAVE_FC_IOMSG     HAVE_FC_ISO_C_BINDING  HAVE_FC_ISO_FORTRAN_2008
 
        HAVE_FC_LONG_LINES        HAVE_FC_MOVE_ALLOC  HAVE_FC_ON_THE_FLY_SHAPE
 
           HAVE_FC_PRIVATE         HAVE_FC_PROTECTED           HAVE_FC_SHIFTLR
 
         HAVE_FC_STREAM_IO            HAVE_FC_SYSTEM                HAVE_FFTW3
 
          HAVE_FORTRAN2003                 HAVE_HDF5        HAVE_LIBPAW_ABINIT
 
      HAVE_LIBTETRA_ABINIT                HAVE_LIBXC         HAVE_LINALG_AXPBY
 
        HAVE_LINALG_GEMM3M                  HAVE_MPI                 HAVE_MPI2
 
       HAVE_MPI_IALLGATHER       HAVE_MPI_IALLREDUCE        HAVE_MPI_IALLTOALL
 
       HAVE_MPI_IALLTOALLV           HAVE_MPI_IBCAST         HAVE_MPI_IGATHERV
 
        HAVE_MPI_INTEGER16               HAVE_MPI_IO HAVE_MPI_TYPE_CREATE_S...
 
               HAVE_NETCDF       HAVE_NETCDF_FORTRAN             HAVE_OS_LINUX
 
         HAVE_TIMER_ABINIT                                                      
 ++++++++++++++++++++++++++++++++++++++++++++++++++++++++++++++++++++++++++++++

- input  file    -> NiC2O4.in
- output file    -> NIC2O4.out
- root for input  files -> abi
- root for output files -> abo

-instrng: 90 lines of input have been read from file NiC2O4.in


 Please give name of formatted atomic psp file (and finish with a newline character)
 For atom type 1, psp file is ../28_Ni_18_1.7_2.2_pbe_n_v1.0_noNLCC.psp8

 Please give name of formatted atomic psp file (and finish with a newline character)
 For atom type 2, psp file is ../06_C_4_1.2_1.2_pbe_n_v1.0_noNLCC.psp8

 Please give name of formatted atomic psp file (and finish with a newline character)
 For atom type 3, psp file is ../08_O_6_1.2_1.4_pbe_n_v1.0_noNLCC.psp8
  read the values zionpsp= 18.0 , pspcod=   8 , lmax=   2
  read the values zionpsp=  4.0 , pspcod=   8 , lmax=   1
  read the values zionpsp=  6.0 , pspcod=   8 , lmax=   2

 inpspheads: deduce mpsang = 3, n1xccc = 0.

======================================================= 
 invars1m : enter jdtset= 0

 symlatt: the Bravais lattice is mP (primitive monoclinic)
  xred   is defined in input file
 ingeo: takes atomic coordinates from input array xred

 symlatt: the Bravais lattice is mP (primitive monoclinic)

 symlatt: the Bravais lattice is mP (primitive monoclinic)

--- !COMMENT
src_file: m_symfind.F90
src_line: 1020
message: |
    The Bravais lattice determined only from the primitive
    vectors, bravais(1)=  2, is more symmetric
    than the real one, iholohedry=  1, obtained by taking into
    account the atomic positions. Start deforming the primitive vector set.
...


 symlatt: the Bravais lattice is aP (primitive triclinic)
 symspgr: spgroup=   1  P1   (=C1^1)
 initocc_chkneu: initialized the occupation numbers for occopt= 3
    spin up   values:
 getmpw sequential formula gave: 111022

 ====================================================================================================
 Searching for all possible proc distributions for this input with #CPUs<=12:

 ~~~~~~~~~~~~~~~~~~~~~~~~~~~~~~~~~~~~~~~~~~~~~~~~~~~~~~~~~~~~~~~~~~~~~~~~~~~~~
 |       np_spkpt|       npfft|      npband|      bandpp|  #MPI(proc)|    WEIGHT|
 |    1<<    8|    1<<   12|    1<<   12|    1<<   65|    1<<   12|  <=    12|
 ~~~~~~~~~~~~~~~~~~~~~~~~~~~~~~~~~~~~~~~~~~~~~~~~~~~~~~~~~~~~~~~~~~~~~~~~~~~~~
 |           8|           1|           1|           1|           8|     7.767|
 |           4|           3|           1|           1|          12|     7.444|
 |           6|           2|           1|           1|          12|     7.100|
 |           1|           2|           5|           1|          10|     6.684|
 |           5|           2|           1|           1|          10|     6.574|
 |           3|           4|           1|           1|          12|     6.225|
 |           4|           2|           1|           1|           8|     5.917|
 |           2|           6|           1|           1|          12|     5.123|
 |           2|           1|           5|           1|          10|     5.002|
 |           3|           3|           1|           1|           9|     4.841|
 ~~~~~~~~~~~~~~~~~~~~~~~~~~~~~~~~~~~~~~~~~~~~~~~~~~~~~~~~~~~~~~~~~~~~~~~~~~~~~
 Only the best possible choices for nproc are printed...

 >>> Possible (best) choices for the number of bands (nband) are:
     with: np_spkpt=8 npfft=1
     nband=    64 using      8 CPUs =     8 MPI x  1 threads (npband=    1)
     nband=    66 using      8 CPUs =     8 MPI x  1 threads (npband=    1)
     nband=    65 using      8 CPUs =     8 MPI x  1 threads (npband=    1)
 >>> The present nband value (    65) seems to be the best choice!
 ====================================================================================================


 For input ecut=  1.800000E+02 best grid ngfft=     125     120     144
       max ecut=  1.846004E+02

 ==== FFT mesh ====
  FFT mesh divisions ........................   125  120  144
  Augmented FFT divisions ...................   125  121  144
  FFT algorithm .............................   312
  FFT cache size ............................    16
 getmpw: optimal value of mpw= 111027

 Symmetries : space group P1 (#  1); Bravais aP (primitive triclinic)

 getdim_nloc : deduce lmnmax  =  18, lnmax  =   6,
                      lmnmaxso=  18, lnmaxso=   6.
memory: analysis of memory needs
================================================================================
 Values of the parameters that define the memory need of the present run
     intxc =       0    ionmov =       0      iscf =       7    lmnmax =       6
     lnmax =       6     mgfft =     144  mpssoang =       3    mqgrid =    5966
     natom =      14  nloc_mem =       1    nspden =       2   nspinor =       1
    nsppol =       2      nsym =       1    n1xccc =       0    ntypat =       3
    occopt =       3   xclevel =       2
-    mband =          65        mffmem =           1         mkmem =           1
       mpw =      111027          nfft =     2160000          nkpt =           4
================================================================================
P This job should need less than                    1279.652 Mbytes of memory.
  Rough estimation (10% accuracy) of disk space for files :
_ WF disk file :    880.954 Mbytes ; DEN or POT disk file :     32.961 Mbytes.
================================================================================

 Biggest array : f_fftgr(disk), with    527.3458 MBytes.
 memana : allocated an array of    527.346 Mbytes, for testing purposes.
 memana: allocated    1279.652Mbytes, for testing purposes. 
 The job will continue.
--------------------------------------------------------------------------------
------------- Echo of variables that govern the present computation ------------
--------------------------------------------------------------------------------
-
- outvars: echo of selected default values                                      
-   iomode0 =  0 , fftalg0 =312 , wfoptalg0 =  0
-
- outvars: echo of global parameters not present in the input file              
-  max_nthreads =    0
-
 -outvars: echo values of preprocessed input variables --------
 
 These variables are accessible in NetCDF format (abo_OUT.nc)

            acell      1.0000000000E+00  1.0000000000E+00  1.0000000000E+00 Bohr
              amu      5.86900000E+01  1.20110000E+01  1.59994000E+01
        autoparal           1
           diemac      1.00000000E+00
           diemix      4.00000000E-01
             ecut      1.80000000E+02 Hartree
           ecutsm      5.00000000E-01 Hartree
-          fftalg         312
              ixc     -263267
              kpt      2.50000000E-01  2.50000000E-01  2.50000000E-01
                      -2.50000000E-01  2.50000000E-01  2.50000000E-01
                       2.50000000E-01 -2.50000000E-01  2.50000000E-01
                      -2.50000000E-01 -2.50000000E-01  2.50000000E-01
         kptrlatt        2    0    0      0    2    0      0    0    2
          kptrlen      1.92252067E+01
P           mkmem           1
            natom          14
            nband          65
            ngfft         125     120     144
             nkpt           4
-        np_spkpt           8
           nspden           2
           nsppol           2
            nstep          60
             nsym           1
           ntypat           3
              occ      1.000000  1.000000  1.000000  1.000000  1.000000  1.000000
                       1.000000  1.000000  1.000000  1.000000  1.000000  1.000000
                       1.000000  1.000000  1.000000  1.000000  1.000000  1.000000
                       1.000000  1.000000  1.000000  1.000000  1.000000  1.000000
                       1.000000  1.000000  1.000000  1.000000  1.000000  1.000000
                       1.000000  1.000000  1.000000  1.000000  1.000000  1.000000
                       1.000000  1.000000  1.000000  1.000000  1.000000  1.000000
                       1.000000  1.000000  1.000000  1.000000  1.000000  1.000000
                       1.000000  1.000000  0.000000  0.000000  0.000000  0.000000
                       0.000000  0.000000  0.000000  0.000000  0.000000  0.000000
                       0.000000  0.000000  0.000000  0.000000  0.000000
                       1.000000  1.000000  1.000000  1.000000  1.000000  1.000000
                       1.000000  1.000000  1.000000  1.000000  1.000000  1.000000
                       1.000000  1.000000  1.000000  1.000000  1.000000  1.000000
                       1.000000  1.000000  1.000000  1.000000  1.000000  1.000000
                       1.000000  1.000000  1.000000  1.000000  1.000000  1.000000
                       1.000000  1.000000  1.000000  1.000000  1.000000  1.000000
                       1.000000  1.000000  1.000000  1.000000  1.000000  1.000000
                       1.000000  1.000000  1.000000  1.000000  1.000000  1.000000
                       1.000000  1.000000  0.000000  0.000000  0.000000  0.000000
                       0.000000  0.000000  0.000000  0.000000  0.000000  0.000000
                       0.000000  0.000000  0.000000  0.000000  0.000000
                       1.000000  1.000000  1.000000  1.000000  1.000000  1.000000
                       1.000000  1.000000  1.000000  1.000000  1.000000  1.000000
                       1.000000  1.000000  1.000000  1.000000  1.000000  1.000000
                       1.000000  1.000000  1.000000  1.000000  1.000000  1.000000
                       1.000000  1.000000  1.000000  1.000000  1.000000  1.000000
                       1.000000  1.000000  1.000000  1.000000  1.000000  1.000000
                       1.000000  1.000000  1.000000  1.000000  1.000000  1.000000
                       1.000000  1.000000  1.000000  1.000000  1.000000  1.000000
                       1.000000  1.000000  0.000000  0.000000  0.000000  0.000000
                       0.000000  0.000000  0.000000  0.000000  0.000000  0.000000
                       0.000000  0.000000  0.000000  0.000000  0.000000
                       1.000000  1.000000  1.000000  1.000000  1.000000  1.000000
                       1.000000  1.000000  1.000000  1.000000  1.000000  1.000000
                       1.000000  1.000000  1.000000  1.000000  1.000000  1.000000
                       1.000000  1.000000  1.000000  1.000000  1.000000  1.000000
                       1.000000  1.000000  1.000000  1.000000  1.000000  1.000000
                       1.000000  1.000000  1.000000  1.000000  1.000000  1.000000
                       1.000000  1.000000  1.000000  1.000000  1.000000  1.000000
                       1.000000  1.000000  1.000000  1.000000  1.000000  1.000000
                       1.000000  1.000000  0.000000  0.000000  0.000000  0.000000
                       0.000000  0.000000  0.000000  0.000000  0.000000  0.000000
                       0.000000  0.000000  0.000000  0.000000  0.000000
                       1.000000  1.000000  1.000000  1.000000  1.000000  1.000000
                       1.000000  1.000000  1.000000  1.000000  1.000000  1.000000
                       1.000000  1.000000  1.000000  1.000000  1.000000  1.000000
                       1.000000  1.000000  1.000000  1.000000  1.000000  1.000000
                       1.000000  1.000000  1.000000  1.000000  1.000000  1.000000
                       1.000000  1.000000  1.000000  1.000000  1.000000  1.000000
                       1.000000  1.000000  1.000000  1.000000  1.000000  1.000000
                       1.000000  1.000000  1.000000  1.000000  1.000000  1.000000
                       1.000000  1.000000  0.000000  0.000000  0.000000  0.000000
                       0.000000  0.000000  0.000000  0.000000  0.000000  0.000000
                       0.000000  0.000000  0.000000  0.000000  0.000000
                       1.000000  1.000000  1.000000  1.000000  1.000000  1.000000
                       1.000000  1.000000  1.000000  1.000000  1.000000  1.000000
                       1.000000  1.000000  1.000000  1.000000  1.000000  1.000000
                       1.000000  1.000000  1.000000  1.000000  1.000000  1.000000
                       1.000000  1.000000  1.000000  1.000000  1.000000  1.000000
                       1.000000  1.000000  1.000000  1.000000  1.000000  1.000000
                       1.000000  1.000000  1.000000  1.000000  1.000000  1.000000
                       1.000000  1.000000  1.000000  1.000000  1.000000  1.000000
                       1.000000  1.000000  0.000000  0.000000  0.000000  0.000000
                       0.000000  0.000000  0.000000  0.000000  0.000000  0.000000
                       0.000000  0.000000  0.000000  0.000000  0.000000
                       1.000000  1.000000  1.000000  1.000000  1.000000  1.000000
                       1.000000  1.000000  1.000000  1.000000  1.000000  1.000000
                       1.000000  1.000000  1.000000  1.000000  1.000000  1.000000
                       1.000000  1.000000  1.000000  1.000000  1.000000  1.000000
                       1.000000  1.000000  1.000000  1.000000  1.000000  1.000000
                       1.000000  1.000000  1.000000  1.000000  1.000000  1.000000
                       1.000000  1.000000  1.000000  1.000000  1.000000  1.000000
                       1.000000  1.000000  1.000000  1.000000  1.000000  1.000000
                       1.000000  1.000000  0.000000  0.000000  0.000000  0.000000
                       0.000000  0.000000  0.000000  0.000000  0.000000  0.000000
                       0.000000  0.000000  0.000000  0.000000  0.000000
                       1.000000  1.000000  1.000000  1.000000  1.000000  1.000000
                       1.000000  1.000000  1.000000  1.000000  1.000000  1.000000
                       1.000000  1.000000  1.000000  1.000000  1.000000  1.000000
                       1.000000  1.000000  1.000000  1.000000  1.000000  1.000000
                       1.000000  1.000000  1.000000  1.000000  1.000000  1.000000
                       1.000000  1.000000  1.000000  1.000000  1.000000  1.000000
                       1.000000  1.000000  1.000000  1.000000  1.000000  1.000000
                       1.000000  1.000000  1.000000  1.000000  1.000000  1.000000
                       1.000000  1.000000  0.000000  0.000000  0.000000  0.000000
                       0.000000  0.000000  0.000000  0.000000  0.000000  0.000000
                       0.000000  0.000000  0.000000  0.000000  0.000000
           occopt           3
           prtden           0
           prteig           0
          prtkden           1
            prtwf           0
            rprim      0.0000000000E+00  1.0137047334E+01  0.0000000000E+00
                       9.6126033568E+00  0.0000000000E+00  0.0000000000E+00
                       0.0000000000E+00 -5.7455806104E+00 -9.8776109362E+00
           shiftk      5.00000000E-01  5.00000000E-01  5.00000000E-01
          spgroup           1
           spinat      0.0000000000E+00  0.0000000000E+00  1.0000000000E+00
                       0.0000000000E+00  0.0000000000E+00  1.0000000000E+00
                       0.0000000000E+00  0.0000000000E+00  1.0000000000E+00
                       0.0000000000E+00  0.0000000000E+00  1.0000000000E+00
                       0.0000000000E+00  0.0000000000E+00  1.0000000000E+00
                       0.0000000000E+00  0.0000000000E+00  1.0000000000E+00
                       0.0000000000E+00  0.0000000000E+00  1.0000000000E+00
                       0.0000000000E+00  0.0000000000E+00  1.0000000000E+00
                       0.0000000000E+00  0.0000000000E+00  1.0000000000E+00
                       0.0000000000E+00  0.0000000000E+00  1.0000000000E+00
                       0.0000000000E+00  0.0000000000E+00  1.0000000000E+00
                       0.0000000000E+00  0.0000000000E+00  1.0000000000E+00
                       0.0000000000E+00  0.0000000000E+00  1.0000000000E+00
                       0.0000000000E+00  0.0000000000E+00  1.0000000000E+00
           toldfe      1.00000000E-06 Hartree
           tsmear      1.00000000E-03 Hartree
            typat      1  1  2  2  2  2  3  3  3  3  3  3  3  3
          usekden           1
              wtk        0.25000    0.25000    0.25000    0.25000
           xangst      2.5433853058E+00 -1.5202151546E+00 -2.6135032914E+00
                       0.0000000000E+00  0.0000000000E+00  0.0000000000E+00
                       3.1562750365E+00  1.1910186627E+00 -2.1474058874E+00
                       6.1288973068E-01  2.6530605942E+00 -4.6609740399E-01
                       1.9304955751E+00  1.1328454397E+00 -3.0796006954E+00
                       4.4738808809E+00 -3.2919649184E-01 -4.7609091788E+00
                       1.4881550895E+00  2.2345712582E+00 -3.5468271328E+00
                       4.0315403953E+00 -1.4309223104E+00 -4.2936827414E+00
                       3.5986155221E+00  8.9292844179E-02 -1.6801794500E+00
                       1.0552302163E+00  3.7547864128E+00 -9.3332384141E-01
                       3.6404796442E+00  2.3325325213E+00 -1.9145427441E+00
                       1.0970943384E+00  1.5115467357E+00 -6.9896054726E-01
                       1.4462909674E+00 -8.6684189171E-03 -3.3124638386E+00
                       3.9896762732E+00  8.1231736673E-01 -4.5280460355E+00
            xcart      4.8063016784E+00 -2.8727903052E+00 -4.9388054681E+00
                       0.0000000000E+00  0.0000000000E+00  0.0000000000E+00
                       5.9644954190E+00  2.2506990917E+00 -4.0580090233E+00
                       1.1581937406E+00  5.0135579370E+00 -8.8079644479E-01
                       3.6481079377E+00  2.1407676318E+00 -5.8196019129E+00
                       8.4544096161E+00 -6.2209121348E-01 -8.9968144914E+00
                       2.8122055624E+00  4.2227277024E+00 -6.7025319217E+00
                       7.6185072408E+00 -2.7040512841E+00 -8.1138844827E+00
                       6.8003977943E+00  1.6873902112E-01 -3.1750790146E+00
                       1.9940961159E+00  7.0955180076E+00 -1.7637264536E+00
                       6.8795095200E+00  4.4078476613E+00 -3.6179614561E+00
                       2.0732078416E+00  2.8564093675E+00 -1.3208440120E+00
                       2.7330938368E+00 -1.6380937759E-02 -6.2596494801E+00
                       7.5393955152E+00  1.5350573561E+00 -8.5567669242E+00
             xred     -5.0809124433E-18  5.0000000000E-01  5.0000000000E-01
                       0.0000000000E+00  0.0000000000E+00  0.0000000000E+00
                       4.5488100000E-01  6.2048700000E-01  4.1082900000E-01
                       5.4511900000E-01  1.2048700000E-01  8.9171000000E-02
                       5.4511900000E-01  3.7951300000E-01  5.8917100000E-01
                       4.5488100000E-01  8.7951300000E-01  9.1082900000E-01
                       8.0116400000E-01  2.9255400000E-01  6.7855800000E-01
                       1.9883600000E-01  7.9255400000E-01  8.2144200000E-01
                       1.9883600000E-01  7.0744600000E-01  3.2144200000E-01
                       8.0116400000E-01  2.0744600000E-01  1.7855800000E-01
                       6.4242900000E-01  7.1567600000E-01  3.6627900000E-01
                       3.5757100000E-01  2.1567600000E-01  1.3372100000E-01
                       3.5757100000E-01  2.8432400000E-01  6.3372100000E-01
                       6.4242900000E-01  7.8432400000E-01  8.6627900000E-01
            znucl       28.00000    6.00000    8.00000

================================================================================

 chkinp: Checking input parameters for consistency.
 DATA TYPE INFORMATION: 
 REAL:      Data type name: REAL(DP) 
            Kind value:      8
            Precision:      15
            Smallest nonnegligible quantity relative to 1: 0.22204460E-015
            Smallest positive number:                      0.22250739E-307
            Largest representable number:                  0.17976931E+309
 INTEGER:   Data type name: INTEGER(default) 
            Kind value: 4
            Bit size:   32
            Largest representable number: 2147483647
 LOGICAL:   Data type name: LOGICAL 
            Kind value: 4
 CHARACTER: Data type name: CHARACTER             Kind value: 1

  ==== OpenMP parallelism is OFF ====
 
  ==== Using MPI-2 specifications ==== 
  MPI-IO support is ON
  xmpi_tag_ub ................    268435455
  xmpi_bsize_ch ..............            1
  xmpi_bsize_int .............            4
  xmpi_bsize_sp ..............            4
  xmpi_bsize_dp ..............            8
  xmpi_bsize_spc .............            8
  xmpi_bsize_dpc .............           16
  xmpio_bsize_frm ............            4
  xmpi_address_kind ..........            8
  xmpi_offset_kind ...........            8
  MPI_WTICK ..................    1.0000000000000001E-009

================================================================================
== DATASET  1 ==================================================================
-   mpi_nproc: 8, omp_nthreads: -1 (-1 if OMP is not activated)


--- !COMMENT
src_file: m_xgScalapack.F90
src_line: 236
message: |
    xgScalapack in auto mode
...


 getdim_nloc : deduce lmnmax  =  18, lnmax  =   6,
                      lmnmaxso=  18, lnmaxso=   6.
 SCAN exchange of Sun, Ruzsinszky, and Perdew
 J. Sun, A. Ruzsinszky, and J. P. Perdew, Phys. Rev. Lett. 115, 036402 (2015)
 SCAN correlation of Sun, Ruzsinszky, and Perdew
 J. Sun, A. Ruzsinszky, and J. P. Perdew, Phys. Rev. Lett. 115, 036402 (2015)

 Unit cell volume ucvol=  9.6250814E+02 bohr^3
 Angles (23,13,12)=  9.00000000E+01  1.20185586E+02  9.00000000E+01 degrees

 getcut: wavevector=  0.0000  0.0000  0.0000  ngfft= 125 120 144
         ecut(hartree)=    180.000   => boxcut(ratio)=   2.02540
- pspini: atom type   1  psp file is ../28_Ni_18_1.7_2.2_pbe_n_v1.0_noNLCC.psp8
- pspatm: opening atomic psp file    ../28_Ni_18_1.7_2.2_pbe_n_v1.0_noNLCC.psp8
- Ni    ONCVPSP-4.0.1  r_core=   1.72718   2.23383   2.00579
- 28.00000  18.00000    220730                znucl, zion, pspdat
    8   11    2    4       600   0.00000      pspcod,pspxc,lmax,lloc,mmax,r2well

--- !WARNING
src_file: m_pspini.F90
src_line: 1039
message: |
    Pseudopotential file pspxc: 11, not equal to input ixc: -263267.
    These parameters must agree to get the same xc in ABINIT code as in psp construction.
    Action: check psp design or input file.
    Assume experienced user. Execution will continue.
...

    5.99000000000000    0.00000000000000    0.00000000000000   rchrg,fchrg,qchrg
     nproj     2     2     2
     extension_switch     1
  valence charge integrates to:    0.0000000000000000     
  pspatm : epsatm=   20.27887065
         --- l  ekb(1:nproj) -->
             0    6.731344    0.926240
             1   -6.094904   -1.121423
             2   -3.809211   -2.358971
 pspatm: atomic psp has been read  and splines computed

- pspini: atom type   2  psp file is ../06_C_4_1.2_1.2_pbe_n_v1.0_noNLCC.psp8
- pspatm: opening atomic psp file    ../06_C_4_1.2_1.2_pbe_n_v1.0_noNLCC.psp8
- C     ONCVPSP-4.0.1  r_core=   1.20716   1.25127
-  6.00000   4.00000    210705                znucl, zion, pspdat
    8   11    1    4       600   0.00000      pspcod,pspxc,lmax,lloc,mmax,r2well

--- !WARNING
src_file: m_pspini.F90
src_line: 1039
message: |
    Pseudopotential file pspxc: 11, not equal to input ixc: -263267.
    These parameters must agree to get the same xc in ABINIT code as in psp construction.
    Action: check psp design or input file.
    Assume experienced user. Execution will continue.
...

    5.99000000000000    0.00000000000000    0.00000000000000   rchrg,fchrg,qchrg
     nproj     2     2
     extension_switch     1
  valence charge integrates to:    0.0000000000000000     
  pspatm : epsatm=    4.32981377
         --- l  ekb(1:nproj) -->
             0    6.596863    0.345809
             1   -4.195516   -0.845667
 pspatm: atomic psp has been read  and splines computed

- pspini: atom type   3  psp file is ../08_O_6_1.2_1.4_pbe_n_v1.0_noNLCC.psp8
- pspatm: opening atomic psp file    ../08_O_6_1.2_1.4_pbe_n_v1.0_noNLCC.psp8
- O     ONCVPSP-4.0.1  r_core=   1.35246   1.45312   1.25127
-  8.00000   6.00000    211017                znucl, zion, pspdat
    8   11    2    4       600   0.00000      pspcod,pspxc,lmax,lloc,mmax,r2well

--- !WARNING
src_file: m_pspini.F90
src_line: 1039
message: |
    Pseudopotential file pspxc: 11, not equal to input ixc: -263267.
    These parameters must agree to get the same xc in ABINIT code as in psp construction.
    Action: check psp design or input file.
    Assume experienced user. Execution will continue.
...

    5.99000000000000    0.00000000000000    0.00000000000000   rchrg,fchrg,qchrg
     nproj     2     2     1
     extension_switch     1
  valence charge integrates to:    0.0000000000000000     
  pspatm : epsatm=    6.23707843
         --- l  ekb(1:nproj) -->
             0    5.937473    0.786295
             1   -4.689242   -1.104247
             2   -1.133413
 pspatm: atomic psp has been read  and splines computed

   1.07773624E+04                                ecore*ucvol(ha*bohr**3)
 ==== Info on pseudopotentials ====
  Norm-conserving pseudopotentials
  Number of pseudopotentials ..    3
  Number of types of atoms   ..    3
  Scalar calculation (no spin-orbit term)
  Nonlocal part applied using Legendre polynomials
  Max number of non-local projectors over l and type   2
  Highest angular momentum +1 .......   3
  Max number of (l,n)   components ..   6
  Max number of (l,m,n) components ..   6

 Info on the Q-grid used for form factors in spline form: 
   Number of q-points for radial functions ffspl ..   5966
   Number of q-points for vlspl ...................   5966
   vloc is computed in Reciprocal Space
   model core charge treated in real-space

  XC functional for type 1 is 11
  Pseudo valence available: yes
  XC functional for type 2 is 11
  Pseudo valence available: yes
  XC functional for type 3 is 11
  Pseudo valence available: yes

 newkpt: spin channel isppol2 =     1
 wfconv:    65 bands initialized randomly with npw=111027, for ikpt=     1
 newkpt: spin channel isppol2 =     2
_setup2: Arith. and geom. avg. npw (full set) are  111023.000  111023.000
 initro: for itypat=  1, take pseudo charge density from pp file
 initro: for itypat=  2, take pseudo charge density from pp file
 initro: for itypat=  3, take pseudo charge density from pp file

================================================================================

 getcut: wavevector=  0.0000  0.0000  0.0000  ngfft= 125 120 144
         ecut(hartree)=    180.000   => boxcut(ratio)=   2.02540

 1/G**2 cut-off applied in the following step : cutoff-mode = CRYSTAL

 1/G**2 cut-off applied in the following step : cutoff-mode = CRYSTAL

 1/G**2 cut-off applied in the following step : cutoff-mode = CRYSTAL

 ITER STEP NUMBER     1
 Max number of non-self-consistent loops: 2
[atl1-1-02-020-27-1.pace.gatech.edu:mpi_rank_1][MPIDI_CH3_Abort] application called MPI_Abort(MPI_COMM_WORLD, 13) - process 1: No such file or directory (2)
slurmstepd: error: *** STEP 155641.0 ON atl1-1-02-020-27-1 CANCELLED AT 2022-12-07T20:30:19 ***
srun: Job step aborted: Waiting up to 32 seconds for job step to finish.
srun: error: atl1-1-02-020-27-1: tasks 0-11: Killed
---------------------------------------
Begin Slurm Epilog: Dec-07-2022 20:30:20
Job ID:        155641
Array Job ID:  _4294967294
User ID:       bzhang376
Account:       gts-phanish6
Job name:      AbiNiC2O4
Resources:     cpu=12,mem=84G,node=1
Rsrc Used:     cput=00:40:00,vmem=8248K,walltime=00:03:20,mem=7092K,energy_used=0
Partition:     cpu-small
QOS:           inferno
Nodes:         atl1-1-02-020-27-1
---------------------------------------
