
.Version 9.6.2 of ABINIT 
.(MPI version, prepared for a x86_64_linux_gnu10.3 computer) 

.Copyright (C) 1998-2021 ABINIT group . 
 ABINIT comes with ABSOLUTELY NO WARRANTY.
 It is free software, and you are welcome to redistribute it
 under certain conditions (GNU General Public License,
 see ~abinit/COPYING or http://www.gnu.org/copyleft/gpl.txt).

 ABINIT is a project of the Universite Catholique de Louvain,
 Corning Inc. and other collaborators, see ~abinit/doc/developers/contributors.txt .
 Please read https://docs.abinit.org/theory/acknowledgments for suggested
 acknowledgments of the ABINIT effort.
 For more information, see https://www.abinit.org .

.Starting date : Fri  6 Jan 2023.
- ( at 17h18 )
  
- input  file    -> NiC2O4.in
- output file    -> NiC2O4.out
- root for input  files -> abi
- root for output files -> abo


 Symmetries : space group P1 (#  1); Bravais aP (primitive triclinic)
================================================================================
 Values of the parameters that define the memory need of the present run
     intxc =       0    ionmov =       0      iscf =       7    lmnmax =       6
     lnmax =       6     mgfft =     160  mpssoang =       3    mqgrid =    6820
     natom =      14  nloc_mem =       1    nspden =       2   nspinor =       1
    nsppol =       2      nsym =       1    n1xccc =       0    ntypat =       3
    occopt =       3   xclevel =       2
-    mband =          65        mffmem =           1         mkmem =           1
       mpw =      165876          nfft =     3110400          nkpt =           4
================================================================================
P This job should need less than                    1853.505 Mbytes of memory.
  Rough estimation (10% accuracy) of disk space for files :
_ WF disk file :   1316.157 Mbytes ; DEN or POT disk file :     47.463 Mbytes.
================================================================================

--------------------------------------------------------------------------------
------------- Echo of variables that govern the present computation ------------
--------------------------------------------------------------------------------
-
- outvars: echo of selected default values                                      
-   iomode0 =  0 , fftalg0 =312 , wfoptalg0 =  0
-
- outvars: echo of global parameters not present in the input file              
-  max_nthreads =    0
-
 -outvars: echo values of preprocessed input variables --------
            acell      9.7000000000E-01  9.7000000000E-01  9.7000000000E-01 Bohr
              amu      5.86900000E+01  1.20110000E+01  1.59994000E+01
        autoparal           1
           diemac      1.00000000E+00
           diemix      4.00000000E-01
             ecut      2.50000000E+02 Hartree
           ecutsm      5.00000000E-01 Hartree
-          fftalg         312
              ixc     -263267
              kpt      2.50000000E-01  2.50000000E-01  2.50000000E-01
                      -2.50000000E-01  2.50000000E-01  2.50000000E-01
                       2.50000000E-01 -2.50000000E-01  2.50000000E-01
                      -2.50000000E-01 -2.50000000E-01  2.50000000E-01
         kptrlatt        2    0    0      0    2    0      0    0    2
          kptrlen      1.86484505E+01
P           mkmem           1
            natom          14
            nband          65
            ngfft         144     135     160
             nkpt           4
-        np_spkpt           8
           nspden           2
           nsppol           2
            nstep          60
             nsym           1
           ntypat           3
              occ      1.000000  1.000000  1.000000  1.000000  1.000000  1.000000
                       1.000000  1.000000  1.000000  1.000000  1.000000  1.000000
                       1.000000  1.000000  1.000000  1.000000  1.000000  1.000000
                       1.000000  1.000000  1.000000  1.000000  1.000000  1.000000
                       1.000000  1.000000  1.000000  1.000000  1.000000  1.000000
                       1.000000  1.000000  1.000000  1.000000  1.000000  1.000000
                       1.000000  1.000000  1.000000  1.000000  1.000000  1.000000
                       1.000000  1.000000  1.000000  1.000000  1.000000  1.000000
                       1.000000  1.000000  0.000000  0.000000  0.000000  0.000000
                       0.000000  0.000000  0.000000  0.000000  0.000000  0.000000
                       0.000000  0.000000  0.000000  0.000000  0.000000
                       1.000000  1.000000  1.000000  1.000000  1.000000  1.000000
                       1.000000  1.000000  1.000000  1.000000  1.000000  1.000000
                       1.000000  1.000000  1.000000  1.000000  1.000000  1.000000
                       1.000000  1.000000  1.000000  1.000000  1.000000  1.000000
                       1.000000  1.000000  1.000000  1.000000  1.000000  1.000000
                       1.000000  1.000000  1.000000  1.000000  1.000000  1.000000
                       1.000000  1.000000  1.000000  1.000000  1.000000  1.000000
                       1.000000  1.000000  1.000000  1.000000  1.000000  1.000000
                       1.000000  1.000000  0.000000  0.000000  0.000000  0.000000
                       0.000000  0.000000  0.000000  0.000000  0.000000  0.000000
                       0.000000  0.000000  0.000000  0.000000  0.000000
                       1.000000  1.000000  1.000000  1.000000  1.000000  1.000000
                       1.000000  1.000000  1.000000  1.000000  1.000000  1.000000
                       1.000000  1.000000  1.000000  1.000000  1.000000  1.000000
                       1.000000  1.000000  1.000000  1.000000  1.000000  1.000000
                       1.000000  1.000000  1.000000  1.000000  1.000000  1.000000
                       1.000000  1.000000  1.000000  1.000000  1.000000  1.000000
                       1.000000  1.000000  1.000000  1.000000  1.000000  1.000000
                       1.000000  1.000000  1.000000  1.000000  1.000000  1.000000
                       1.000000  1.000000  0.000000  0.000000  0.000000  0.000000
                       0.000000  0.000000  0.000000  0.000000  0.000000  0.000000
                       0.000000  0.000000  0.000000  0.000000  0.000000
                       1.000000  1.000000  1.000000  1.000000  1.000000  1.000000
                       1.000000  1.000000  1.000000  1.000000  1.000000  1.000000
                       1.000000  1.000000  1.000000  1.000000  1.000000  1.000000
                       1.000000  1.000000  1.000000  1.000000  1.000000  1.000000
                       1.000000  1.000000  1.000000  1.000000  1.000000  1.000000
                       1.000000  1.000000  1.000000  1.000000  1.000000  1.000000
                       1.000000  1.000000  1.000000  1.000000  1.000000  1.000000
                       1.000000  1.000000  1.000000  1.000000  1.000000  1.000000
                       1.000000  1.000000  0.000000  0.000000  0.000000  0.000000
                       0.000000  0.000000  0.000000  0.000000  0.000000  0.000000
                       0.000000  0.000000  0.000000  0.000000  0.000000
                       1.000000  1.000000  1.000000  1.000000  1.000000  1.000000
                       1.000000  1.000000  1.000000  1.000000  1.000000  1.000000
                       1.000000  1.000000  1.000000  1.000000  1.000000  1.000000
                       1.000000  1.000000  1.000000  1.000000  1.000000  1.000000
                       1.000000  1.000000  1.000000  1.000000  1.000000  1.000000
                       1.000000  1.000000  1.000000  1.000000  1.000000  1.000000
                       1.000000  1.000000  1.000000  1.000000  1.000000  1.000000
                       1.000000  1.000000  1.000000  1.000000  1.000000  1.000000
                       1.000000  1.000000  0.000000  0.000000  0.000000  0.000000
                       0.000000  0.000000  0.000000  0.000000  0.000000  0.000000
                       0.000000  0.000000  0.000000  0.000000  0.000000
                       1.000000  1.000000  1.000000  1.000000  1.000000  1.000000
                       1.000000  1.000000  1.000000  1.000000  1.000000  1.000000
                       1.000000  1.000000  1.000000  1.000000  1.000000  1.000000
                       1.000000  1.000000  1.000000  1.000000  1.000000  1.000000
                       1.000000  1.000000  1.000000  1.000000  1.000000  1.000000
                       1.000000  1.000000  1.000000  1.000000  1.000000  1.000000
                       1.000000  1.000000  1.000000  1.000000  1.000000  1.000000
                       1.000000  1.000000  1.000000  1.000000  1.000000  1.000000
                       1.000000  1.000000  0.000000  0.000000  0.000000  0.000000
                       0.000000  0.000000  0.000000  0.000000  0.000000  0.000000
                       0.000000  0.000000  0.000000  0.000000  0.000000
                       1.000000  1.000000  1.000000  1.000000  1.000000  1.000000
                       1.000000  1.000000  1.000000  1.000000  1.000000  1.000000
                       1.000000  1.000000  1.000000  1.000000  1.000000  1.000000
                       1.000000  1.000000  1.000000  1.000000  1.000000  1.000000
                       1.000000  1.000000  1.000000  1.000000  1.000000  1.000000
                       1.000000  1.000000  1.000000  1.000000  1.000000  1.000000
                       1.000000  1.000000  1.000000  1.000000  1.000000  1.000000
                       1.000000  1.000000  1.000000  1.000000  1.000000  1.000000
                       1.000000  1.000000  0.000000  0.000000  0.000000  0.000000
                       0.000000  0.000000  0.000000  0.000000  0.000000  0.000000
                       0.000000  0.000000  0.000000  0.000000  0.000000
                       1.000000  1.000000  1.000000  1.000000  1.000000  1.000000
                       1.000000  1.000000  1.000000  1.000000  1.000000  1.000000
                       1.000000  1.000000  1.000000  1.000000  1.000000  1.000000
                       1.000000  1.000000  1.000000  1.000000  1.000000  1.000000
                       1.000000  1.000000  1.000000  1.000000  1.000000  1.000000
                       1.000000  1.000000  1.000000  1.000000  1.000000  1.000000
                       1.000000  1.000000  1.000000  1.000000  1.000000  1.000000
                       1.000000  1.000000  1.000000  1.000000  1.000000  1.000000
                       1.000000  1.000000  0.000000  0.000000  0.000000  0.000000
                       0.000000  0.000000  0.000000  0.000000  0.000000  0.000000
                       0.000000  0.000000  0.000000  0.000000  0.000000
           occopt           3
           prtden           0
           prteig           0
          prtkden           1
            prtwf           0
            rprim      0.0000000000E+00  1.0137047334E+01  0.0000000000E+00
                       9.6126033568E+00  0.0000000000E+00  0.0000000000E+00
                       0.0000000000E+00 -5.7455806104E+00 -9.8776109362E+00
           shiftk      5.00000000E-01  5.00000000E-01  5.00000000E-01
          spgroup           1
           spinat      0.0000000000E+00  0.0000000000E+00  1.0000000000E+00
                       0.0000000000E+00  0.0000000000E+00  1.0000000000E+00
                       0.0000000000E+00  0.0000000000E+00  1.0000000000E+00
                       0.0000000000E+00  0.0000000000E+00  1.0000000000E+00
                       0.0000000000E+00  0.0000000000E+00  1.0000000000E+00
                       0.0000000000E+00  0.0000000000E+00  1.0000000000E+00
                       0.0000000000E+00  0.0000000000E+00  1.0000000000E+00
                       0.0000000000E+00  0.0000000000E+00  1.0000000000E+00
                       0.0000000000E+00  0.0000000000E+00  1.0000000000E+00
                       0.0000000000E+00  0.0000000000E+00  1.0000000000E+00
                       0.0000000000E+00  0.0000000000E+00  1.0000000000E+00
                       0.0000000000E+00  0.0000000000E+00  1.0000000000E+00
                       0.0000000000E+00  0.0000000000E+00  1.0000000000E+00
                       0.0000000000E+00  0.0000000000E+00  1.0000000000E+00
           toldfe      1.00000000E-06 Hartree
           tsmear      1.00000000E-03 Hartree
            typat      1  1  2  2  2  2  3  3  3  3  3  3  3  3
          usekden           1
              wtk        0.25000    0.25000    0.25000    0.25000
           xangst      2.4670837466E+00 -1.4746086999E+00 -2.5350981926E+00
                       0.0000000000E+00  0.0000000000E+00  0.0000000000E+00
                       3.0615867854E+00  1.1552881029E+00 -2.0829837108E+00
                       5.9450303876E-01  2.5734687764E+00 -4.5211448187E-01
                       1.8725807079E+00  1.0988600765E+00 -2.9872126745E+00
                       4.3396644545E+00 -3.1932059708E-01 -4.6180819034E+00
                       1.4435104368E+00  2.1675341205E+00 -3.4404223188E+00
                       3.9105941835E+00 -1.3879946411E+00 -4.1648722591E+00
                       3.4906570564E+00  8.6614058853E-02 -1.6297740665E+00
                       1.0235733098E+00  3.6421428204E+00 -9.0532412616E-01
                       3.5312652549E+00  2.2625565457E+00 -1.8571064618E+00
                       1.0641815083E+00  1.4662003336E+00 -6.7799173084E-01
                       1.4029022384E+00 -8.4083663496E-03 -3.2130899235E+00
                       3.8699859850E+00  7.8794784573E-01 -4.3922046545E+00
            xcart      4.6621126280E+00 -2.7866065961E+00 -4.7906413041E+00
                       0.0000000000E+00  0.0000000000E+00  0.0000000000E+00
                       5.7855605565E+00  2.1831781190E+00 -3.9362687526E+00
                       1.1234479284E+00  4.8631511989E+00 -8.5437255145E-01
                       3.5386646996E+00  2.0765446029E+00 -5.6450138555E+00
                       8.2007773276E+00 -6.0342847708E-01 -8.7269100567E+00
                       2.7278393956E+00  4.0960458714E+00 -6.5014559640E+00
                       7.3899520236E+00 -2.6229297456E+00 -7.8704679482E+00
                       6.5963858605E+00  1.6367685049E-01 -3.0798266441E+00
                       1.9342732325E+00  6.8826524674E+00 -1.7108146599E+00
                       6.6731242344E+00  4.2756122315E+00 -3.5094226124E+00
                       2.0110116063E+00  2.7707170864E+00 -1.2812186916E+00
                       2.6511010217E+00 -1.5889509626E-02 -6.0718599957E+00
                       7.3132136497E+00  1.4890056354E+00 -8.3000639165E+00
             xred      1.7171761977E-17  5.0000000000E-01  5.0000000000E-01
                       0.0000000000E+00  0.0000000000E+00  0.0000000000E+00
                       4.5488100000E-01  6.2048700000E-01  4.1082900000E-01
                       5.4511900000E-01  1.2048700000E-01  8.9171000000E-02
                       5.4511900000E-01  3.7951300000E-01  5.8917100000E-01
                       4.5488100000E-01  8.7951300000E-01  9.1082900000E-01
                       8.0116400000E-01  2.9255400000E-01  6.7855800000E-01
                       1.9883600000E-01  7.9255400000E-01  8.2144200000E-01
                       1.9883600000E-01  7.0744600000E-01  3.2144200000E-01
                       8.0116400000E-01  2.0744600000E-01  1.7855800000E-01
                       6.4242900000E-01  7.1567600000E-01  3.6627900000E-01
                       3.5757100000E-01  2.1567600000E-01  1.3372100000E-01
                       3.5757100000E-01  2.8432400000E-01  6.3372100000E-01
                       6.4242900000E-01  7.8432400000E-01  8.6627900000E-01
            znucl       28.00000    6.00000    8.00000

================================================================================

 chkinp: Checking input parameters for consistency.

================================================================================
== DATASET  1 ==================================================================
-   mpi_nproc: 8, omp_nthreads: -1 (-1 if OMP is not activated)


--- !DatasetInfo
iteration_state: {dtset: 1, }
dimensions: {natom: 14, nkpt: 4, mband: 65, nsppol: 2, nspinor: 1, nspden: 2, mpw: 165876, }
cutoff_energies: {ecut: 250.0, pawecutdg:  -1.0, }
electrons: {nelect:   1.00000000E+02, charge:   0.00000000E+00, occopt:   3.00000000E+00, tsmear:   1.00000000E-03, }
meta: {optdriver: 0, ionmov: 0, optcell: 0, iscf: 7, paral_kgb: 0, }
...

 Real(R)+Recip(G) space primitive vectors, cartesian coordinates (Bohr,Bohr^-1):
 R(1)=  0.0000000  9.8329359  0.0000000  G(1)=  0.0000000  0.1016990 -0.0591560
 R(2)=  9.3242253  0.0000000  0.0000000  G(2)=  0.1072475  0.0000000  0.0000000
 R(3)=  0.0000000 -5.5732132 -9.5812826  G(3)=  0.0000000  0.0000000 -0.1043702
 Unit cell volume ucvol=  8.7845520E+02 bohr^3
 Angles (23,13,12)=  9.00000000E+01  1.20185586E+02  9.00000000E+01 degrees

 getcut: wavevector=  0.0000  0.0000  0.0000  ngfft= 144 135 160
         ecut(hartree)=    250.000   => boxcut(ratio)=   2.01910

--- Pseudopotential description ------------------------------------------------
- pspini: atom type   1  psp file is ../Ni.pot
- pspatm: opening atomic psp file    ../Ni.pot
- Ni    ONCVPSP-4.0.1  r_core=   2.18101   2.18101   2.24723
- 28.00000  18.00000    200312                znucl, zion, pspdat
    8   11    2    4       600   0.00000      pspcod,pspxc,lmax,lloc,mmax,r2well
    5.99000000000000    0.00000000000000    0.00000000000000   rchrg,fchrg,qchrg
     nproj     2     2     2
     extension_switch     1
  pspatm : epsatm=   38.47316822
         --- l  ekb(1:nproj) -->
             0   -3.440917   -0.196078
             1   -5.406223   -1.725842
             2   -7.274254   -2.503385
 pspatm: atomic psp has been read  and splines computed

- pspini: atom type   2  psp file is ../C.pot
- pspatm: opening atomic psp file    ../C.pot
- C     ONCVPSP-4.0.1  r_core=   1.42727   1.38521
-  6.00000   4.00000    200312                znucl, zion, pspdat
    8   11    1    4       600   0.00000      pspcod,pspxc,lmax,lloc,mmax,r2well
    5.99000000000000    0.00000000000000    0.00000000000000   rchrg,fchrg,qchrg
     nproj     2     2
     extension_switch     1
  pspatm : epsatm=    2.26998732
         --- l  ekb(1:nproj) -->
             0    7.571912    0.889574
             1   -3.169338   -0.856835
 pspatm: atomic psp has been read  and splines computed

- pspini: atom type   3  psp file is ../O.pot
- pspatm: opening atomic psp file    ../O.pot
- O     ONCVPSP-4.0.1  r_core=   1.28926   1.47061
-  8.00000   6.00000    200312                znucl, zion, pspdat
    8   11    1    4       600   0.00000      pspcod,pspxc,lmax,lloc,mmax,r2well
    5.99000000000000    0.00000000000000    0.00000000000000   rchrg,fchrg,qchrg
     nproj     2     2
     extension_switch     1
  pspatm : epsatm=    3.44365635
         --- l  ekb(1:nproj) -->
             0    9.802940    1.339963
             1   -3.661294   -1.085684
 pspatm: atomic psp has been read  and splines computed

   1.13575537E+04                                ecore*ucvol(ha*bohr**3)
--------------------------------------------------------------------------------

_setup2: Arith. and geom. avg. npw (full set) are  165869.000  165869.000

================================================================================

--- !BeginCycle
iteration_state: {dtset: 1, }
solver: {iscf: 7, nstep: 60, nline: 4, wfoptalg: 0, }
tolerances: {toldfe: 1.00E-06, }
...

     iter   Etot(hartree)     deltaE(h) residm    vres2    magn
 ETOT  1  -456.71538579273    -4.57E+02 3.67E-01 1.77E+05 1.974
 ETOT  2  -457.54287015696    -8.27E-01 1.46E-02 4.55E+05 3.758
 ETOT  3  -458.96369313307    -1.42E+00 1.21E-02 1.37E+05 3.338
 ETOT  4  -458.99596259826    -3.23E-02 5.19E-03 1.11E+05 3.749
 ETOT  5  -459.01446970732    -1.85E-02 1.38E-03 9.57E+04 3.806
 ETOT  6  -459.05237918662    -3.79E-02 3.20E-03 7.24E+04 4.000
 ETOT  7  -459.08865693467    -3.63E-02 1.21E-03 3.88E+04 4.000
 ETOT  8  -459.11790792467    -2.93E-02 2.86E-03 1.29E+04 4.000
 ETOT  9  -459.12794230012    -1.00E-02 6.78E-04 6.65E+03 4.000
 ETOT 10  -459.13139908049    -3.46E-03 1.44E-03 3.08E+03 4.000
 ETOT 11  -459.13180582254    -4.07E-04 3.19E-04 1.66E+03 4.000
 ETOT 12  -459.13206337614    -2.58E-04 5.77E-04 2.04E+02 4.000
 ETOT 13  -459.13212762492    -6.42E-05 3.06E-04 1.46E+02 4.000
 ETOT 14  -459.13217549094    -4.79E-05 3.88E-04 4.02E+01 4.000
 ETOT 15  -459.13218369435    -8.20E-06 3.10E-04 1.85E+01 4.000
 ETOT 16  -459.13219013501    -6.44E-06 3.55E-04 9.77E+00 4.000
 ETOT 17  -459.13219430618    -4.17E-06 2.70E-04 4.72E+00 4.000
 ETOT 18  -459.13219787843    -3.57E-06 2.79E-04 1.77E+00 4.000
 ETOT 19  -459.13219943888    -1.56E-06 1.99E-04 9.06E-01 4.000
 ETOT 20  -459.13220007496    -6.36E-07 1.91E-04 3.56E-01 4.000
 ETOT 21  -459.13220036782    -2.93E-07 1.32E-04 8.88E-02 4.000

 At SCF step   21, etot is converged : 
  for the second time, diff in etot=  2.929E-07 < toldfe=  1.000E-06

Result for kinetic energy density :

--------------------------------------------------------------------------------
 Total kinetic energy density [Ha/Bohr^3]
      Maximum=    1.9633E+01  at reduced coord.    0.0000    0.5111    0.4875
      Minimum=    1.3028E-03  at reduced coord.    0.0000    0.0000    0.5000
   Integrated=    2.3867E+02
 Spin up density      [Ha/Bohr^3]
      Maximum=    1.0255E+01  at reduced coord.    0.9861    0.4741    0.4938
      Minimum=    6.4599E-04  at reduced coord.    0.0000    0.0000    0.5000
   Integrated=    1.2953E+02
 Spin down density    [Ha/Bohr^3]
      Maximum=    9.8685E+00  at reduced coord.    0.0000    0.0000    0.0000
      Minimum=    6.5682E-04  at reduced coord.    0.0000    0.0000    0.5000
   Integrated=    1.0914E+02
 Magnetization (spin up - spin down) [Ha/Bohr^3]
      Maximum=    3.0173E+00  at reduced coord.    0.0208    0.0222    0.9688
      Minimum=   -2.9216E-01  at reduced coord.    0.0000    0.0000    0.0000
   Integrated=    2.0391E+01
 Relative magnetization (=zeta, between -1 and 1)
      Maximum=    3.2230E-01  at reduced coord.    0.0694    0.9111    0.9188
      Minimum=   -2.0122E-02  at reduced coord.    0.1944    0.4074    0.7875
--------------------------------------------------------------------------------

 Cartesian components of stress tensor (hartree/bohr^3)
  sigma(1 1)=  1.38744450E-02  sigma(3 2)=  1.06553328E-04
  sigma(2 2)=  1.30133042E-02  sigma(3 1)= -2.28259569E-07
  sigma(3 3)=  1.39686546E-02  sigma(2 1)= -2.61994127E-08


--- !ResultsGS
iteration_state: {dtset: 1, }
comment   : Summary of ground state results
lattice_vectors:
- [  0.0000000,   9.8329359,   0.0000000, ]
- [  9.3242253,   0.0000000,   0.0000000, ]
- [  0.0000000,  -5.5732132,  -9.5812826, ]
lattice_lengths: [   9.83294,    9.32423,   11.08430, ]
lattice_angles: [ 90.000, 120.186,  90.000, ] # degrees, (23, 13, 12)
lattice_volume:   8.7845520E+02
convergence: {deltae: -2.929E-07, res2:  8.875E-02, residm:  1.324E-04, diffor: null, }
etotal    :  -4.59132200E+02
entropy   :   0.00000000E+00
fermie    :   1.53625800E-01
cartesian_stress_tensor: # hartree/bohr^3
- [  1.38744450E-02,  -2.61994127E-08,  -2.28259569E-07, ]
- [ -2.61994127E-08,   1.30133042E-02,   1.06553328E-04, ]
- [ -2.28259569E-07,   1.06553328E-04,   1.39686546E-02, ]
pressure_GPa:  -4.0068E+02
xred      :
- [  1.7172E-17,   5.0000E-01,   5.0000E-01, Ni]
- [  0.0000E+00,   0.0000E+00,   0.0000E+00, Ni]
- [  4.5488E-01,   6.2049E-01,   4.1083E-01,  C]
- [  5.4512E-01,   1.2049E-01,   8.9171E-02,  C]
- [  5.4512E-01,   3.7951E-01,   5.8917E-01,  C]
- [  4.5488E-01,   8.7951E-01,   9.1083E-01,  C]
- [  8.0116E-01,   2.9255E-01,   6.7856E-01,  O]
- [  1.9884E-01,   7.9255E-01,   8.2144E-01,  O]
- [  1.9884E-01,   7.0745E-01,   3.2144E-01,  O]
- [  8.0116E-01,   2.0745E-01,   1.7856E-01,  O]
- [  6.4243E-01,   7.1568E-01,   3.6628E-01,  O]
- [  3.5757E-01,   2.1568E-01,   1.3372E-01,  O]
- [  3.5757E-01,   2.8432E-01,   6.3372E-01,  O]
- [  6.4243E-01,   7.8432E-01,   8.6628E-01,  O]
cartesian_forces: # hartree/bohr
- [  6.59255996E-07,  -1.15136991E-05,  -9.75968102E-07, ]
- [  3.05493559E-06,   3.00447038E-07,   4.79031152E-06, ]
- [ -9.40660942E-03,   1.62961952E-03,  -7.17882011E-03, ]
- [ -9.42806235E-03,  -1.67169984E-03,   7.15627800E-03, ]
- [  9.40645105E-03,  -1.61519604E-03,   7.17730719E-03, ]
- [  9.42741991E-03,   1.67049550E-03,  -7.15637370E-03, ]
- [ -1.29362163E-02,   3.07293092E-02,  -1.45543093E-02, ]
- [ -1.27321563E-02,  -3.08418536E-02,   1.45365808E-02, ]
- [  1.29368199E-02,  -3.07306017E-02,   1.45539727E-02, ]
- [  1.27324447E-02,   3.08445398E-02,  -1.45365806E-02, ]
- [  1.77698989E-02,   2.82005346E-02,   8.56825324E-03, ]
- [  1.74164525E-02,  -2.82903417E-02,  -8.47818362E-03, ]
- [ -1.77740291E-02,  -2.82021924E-02,  -8.57013144E-03, ]
- [ -1.74161276E-02,   2.82886000E-02,   8.47819248E-03, ]
force_length_stats: {min:   5.68946257E-06, max:   3.63979802E-02, mean:   2.36265248E-02, }
...

 Integrated electronic and magnetization densities in atomic spheres:
 ---------------------------------------------------------------------
 Radius=ratsph(iatom), smearing ratsm=  0.0000. Diff(up-dn)=approximate z local magnetic moment.
 Atom    Radius    up_density   dn_density  Total(up+dn)  Diff(up-dn)
    1   2.00000     8.918177     7.210328     16.128505     1.707850
    2   2.00000     8.918220     7.210521     16.128741     1.707700
    3   2.00000     2.982429     2.957678      5.940106     0.024751
    4   2.00000     2.983252     2.958563      5.941815     0.024689
    5   2.00000     2.982413     2.957693      5.940106     0.024719
    6   2.00000     2.983260     2.958557      5.941817     0.024702
    7   2.00000     3.381601     3.286829      6.668430     0.094772
    8   2.00000     3.381530     3.286808      6.668337     0.094722
    9   2.00000     3.381605     3.286849      6.668454     0.094756
   10   2.00000     3.381532     3.286807      6.668339     0.094725
   11   2.00000     3.387758     3.335837      6.723595     0.051922
   12   2.00000     3.387243     3.335242      6.722485     0.052002
   13   2.00000     3.387776     3.335842      6.723618     0.051933
   14   2.00000     3.387239     3.335246      6.722485     0.051993
 ---------------------------------------------------------------------
  Sum:             56.844035    52.742797    109.586831     4.101238
 Total magnetization (from the atomic spheres):             4.101238
 Total magnetization (exact up - dn):                       4.000000
================================================================================

 ----iterations are completed or convergence reached----

 Mean square residual over all n,k,spin=   68.995E-08; max=  13.238E-05
 reduced coordinates (array xred) for   14 atoms
       0.000000000000      0.500000000000      0.500000000000
       0.000000000000      0.000000000000      0.000000000000
       0.454881000000      0.620487000000      0.410829000000
       0.545119000000      0.120487000000      0.089171000000
       0.545119000000      0.379513000000      0.589171000000
       0.454881000000      0.879513000000      0.910829000000
       0.801164000000      0.292554000000      0.678558000000
       0.198836000000      0.792554000000      0.821442000000
       0.198836000000      0.707446000000      0.321442000000
       0.801164000000      0.207446000000      0.178558000000
       0.642429000000      0.715676000000      0.366279000000
       0.357571000000      0.215676000000      0.133721000000
       0.357571000000      0.284324000000      0.633721000000
       0.642429000000      0.784324000000      0.866279000000
 rms dE/dt=  1.6322E-01; max dE/dt=  3.0326E-01; dE/dt below (all hartree)
    1       0.000111453644     -0.000006189815     -0.000072863414
    2      -0.000004714098     -0.000028527671      0.000048227696
    3      -0.016025704097      0.087709302387     -0.059699431321
    4       0.016435957570      0.087909334350      0.059250238249
    5       0.015880359345     -0.087707911255      0.059766632537
    6      -0.016427635018     -0.087903429633     -0.059256555371
    7      -0.302161087424      0.120620152058      0.031812696733
    8       0.303264210506      0.118717450412     -0.032608480628
    9       0.302170277474     -0.120625865666     -0.031821813790
   10      -0.303294143358     -0.118720224923      0.032624765362
   11      -0.277295809169     -0.165690582459      0.239263103069
   12       0.278175357081     -0.162394968853     -0.238899322905
   13       0.277308590882      0.165729008364     -0.239289026259
   14      -0.278161750841      0.162391854015      0.238891012814

 cartesian coordinates (angstrom) at end:
    1      2.46708374663154    -1.47460869993818    -2.53509819264515
    2      0.00000000000000     0.00000000000000     0.00000000000000
    3      3.06158678539234     1.15528810285483    -2.08298371077243
    4      0.59450303876079     2.57346877639943    -0.45211448187272
    5      1.87258070787075     1.09886007646125    -2.98721267451788
    6      4.33966445450230    -0.31932059708335    -4.61808190341758
    7      1.44351043682409     2.16753412046283    -3.44042231880982
    8      3.91059418345563    -1.38799464108493    -4.16487225912564
    9      3.49065705643900     0.08661405885325    -1.62977406648049
   10      1.02357330980745     3.64214282040101    -0.90532412616467
   11      3.53126525490856     2.26255654566571    -1.85710646180775
   12      1.06418150827701     1.46620033358855    -0.67799173083741
   13      1.40290223835453    -0.00840836634962    -3.21308992348256
   14      3.86998598498608     0.78794784572753    -4.39220465445290

 cartesian forces (hartree/bohr) at end:
    1      0.00000065925600    -0.00001151369914    -0.00000097596810
    2      0.00000305493559     0.00000030044704     0.00000479031152
    3     -0.00940660942243     0.00162961951708    -0.00717882010555
    4     -0.00942806235365    -0.00167169983975     0.00715627799960
    5      0.00940645105440    -0.00161519604166     0.00717730718574
    6      0.00942741991488     0.00167049549999    -0.00715637369704
    7     -0.01293621630850     0.03072930915508    -0.01455430927670
    8     -0.01273215628274    -0.03084185364184     0.01453658082547
    9      0.01293681990619    -0.03073060171848     0.01455397266733
   10      0.01273244466956     0.03084453983942    -0.01453658060034
   11      0.01776989885438     0.02820053458845     0.00856825324133
   12      0.01741645248054    -0.02829034169824    -0.00847818361878
   13     -0.01777402910976    -0.02820219242050    -0.00857013144121
   14     -0.01741612759445     0.02828860001255     0.00847819247672
 frms,max,avg= 1.5877286E-02 3.0844540E-02   4.586E-09  1.790E-07 -3.565E-08 h/b

 cartesian forces (eV/Angstrom) at end:
    1      0.00003390030347    -0.00059205816465    -0.00005018629342
    2      0.00015709109085     0.00001544960656     0.00024632770186
    3     -0.48370726414468     0.08379839778633    -0.36914974111330
    4     -0.48481041812960    -0.08596225479803     0.36799057951673
    5      0.48369912053385    -0.08305671292207     0.36907194365496
    6      0.48477738260248     0.08590032516288    -0.36799550047634
    7     -0.66520693248416     1.58016447722596    -0.74841261134571
    8     -0.65471374494452    -1.58595174693620     0.74750097780640
    9      0.66523797072250    -1.58023094350289     0.74839530219717
   10      0.65472857438972     1.58608987675789    -0.74750096622949
   11      0.91376486180953     1.45012967166194     0.44059725962281
   12      0.89558992003890    -1.45474773853641    -0.43596569380009
   13     -0.91397724806247    -1.45021492080637    -0.44069384053537
   14     -0.89557321372586     1.45465817746507     0.43596614929378
 frms,max,avg= 8.1644280E-01 1.5860899E+00   2.358E-07  9.203E-06 -1.833E-06 e/A
 length scales=  0.970000000000  0.970000000000  0.970000000000 bohr
              =  0.513301892332  0.513301892332  0.513301892332 angstroms
 Fermi (or HOMO) energy (hartree) =   0.15363   Average Vxc (hartree)=  -0.42510
 Magnetization (Bohr magneton)=  4.00000000E+00
 Total spin up =  5.20000000E+01   Total spin down =  4.80000000E+01
 Eigenvalues (hartree) for nkpt=   4  k points, SPIN UP:
 kpt#   1, nband= 65, wtk=  0.25000, kpt=  0.2500  0.2500  0.2500 (reduced coord)
  -3.82439   -3.82436   -2.35055   -2.35050   -2.34907   -2.34903   -2.34348   -2.34343
  -0.78681   -0.77647   -0.74698   -0.74547   -0.69497   -0.69054   -0.66695   -0.66552
  -0.33600   -0.31511   -0.21748   -0.20762   -0.20277   -0.19982   -0.17181   -0.16047
  -0.15040   -0.14039   -0.12540   -0.11405   -0.09012   -0.06755   -0.05958   -0.05881
  -0.03936   -0.03439   -0.02601   -0.01344   -0.00963    0.00378    0.00996    0.01725
   0.03461    0.03820    0.04333    0.05197    0.05398    0.06317    0.06946    0.07579
   0.07757    0.08916    0.10523    0.11234    0.25302    0.26922    0.39294    0.41341
   0.41901    0.45492    0.48958    0.50128    0.52816    0.55009    0.57652    0.58367
   0.61136
      occupation numbers for kpt#   1
   1.00000    1.00000    1.00000    1.00000    1.00000    1.00000    1.00000    1.00000
   1.00000    1.00000    1.00000    1.00000    1.00000    1.00000    1.00000    1.00000
   1.00000    1.00000    1.00000    1.00000    1.00000    1.00000    1.00000    1.00000
   1.00000    1.00000    1.00000    1.00000    1.00000    1.00000    1.00000    1.00000
   1.00000    1.00000    1.00000    1.00000    1.00000    1.00000    1.00000    1.00000
   1.00000    1.00000    1.00000    1.00000    1.00000    1.00000    1.00000    1.00000
   1.00000    1.00000    1.00000    1.00000    0.00000    0.00000    0.00000    0.00000
   0.00000    0.00000    0.00000    0.00000    0.00000    0.00000    0.00000    0.00000
   0.00000
 prteigrs : prtvol=0 or 1, do not print more k-points.

 Eigenvalues (hartree) for nkpt=   4  k points, SPIN DOWN:
 kpt#   1, nband= 65, wtk=  0.25000, kpt=  0.2500  0.2500  0.2500 (reduced coord)
  -3.74383   -3.74331   -2.23499   -2.23494   -2.23404   -2.23397   -2.23180   -2.23139
  -0.78306   -0.77254   -0.74253   -0.74099   -0.69018   -0.68536   -0.66142   -0.66013
  -0.33315   -0.31206   -0.21081   -0.20047   -0.19464   -0.19205   -0.16559   -0.15284
  -0.14587   -0.13020   -0.11791   -0.10542   -0.08725   -0.05979   -0.03956   -0.03002
  -0.01485   -0.00984   -0.00519    0.00345    0.02126    0.02286    0.03012    0.03793
   0.04420    0.05920    0.08334    0.08994    0.09319    0.09553    0.09884    0.10323
   0.22387    0.23233    0.24431    0.25333    0.26069    0.27302    0.39394    0.41542
   0.42957    0.46464    0.49552    0.50841    0.53487    0.55602    0.58095    0.58807
   0.61584
      occupation numbers for kpt#   1
   1.00000    1.00000    1.00000    1.00000    1.00000    1.00000    1.00000    1.00000
   1.00000    1.00000    1.00000    1.00000    1.00000    1.00000    1.00000    1.00000
   1.00000    1.00000    1.00000    1.00000    1.00000    1.00000    1.00000    1.00000
   1.00000    1.00000    1.00000    1.00000    1.00000    1.00000    1.00000    1.00000
   1.00000    1.00000    1.00000    1.00000    1.00000    1.00000    1.00000    1.00000
   1.00000    1.00000    1.00000    1.00000    1.00000    1.00000    1.00000    1.00000
   0.00000    0.00000    0.00000    0.00000    0.00000    0.00000    0.00000    0.00000
   0.00000    0.00000    0.00000    0.00000    0.00000    0.00000    0.00000    0.00000
   0.00000
 prteigrs : prtvol=0 or 1, do not print more k-points.


--- !EnergyTerms
iteration_state     : {dtset: 1, }
comment             : Components of total free energy in Hartree
kinetic             :  2.38672959668390E+02
hartree             :  1.64187813322615E+02
xc                  : -6.58206212815071E+01
Ewald energy        : -2.74298343867667E+02
psp_core            :  1.29290073249081E+01
local_psp           : -4.24184211197770E+02
non_local_psp       : -1.10618804336785E+02
internal            : -4.59132200367817E+02
'-kT*entropy'       :  4.26290451696855E-15
total_energy        : -4.59132200367817E+02
total_energy_eV     : -1.24936225466951E+04
band_energy         : -5.77453478760732E+01
...


 Cartesian components of stress tensor (hartree/bohr^3)
  sigma(1 1)=  1.38744450E-02  sigma(3 2)=  1.06553328E-04
  sigma(2 2)=  1.30133042E-02  sigma(3 1)= -2.28259569E-07
  sigma(3 3)=  1.39686546E-02  sigma(2 1)= -2.61994127E-08

-Cartesian components of stress tensor (GPa)         [Pressure= -4.0068E+02 GPa]
- sigma(1 1)=  4.08200196E+02  sigma(3 2)=  3.13490662E+00
- sigma(2 2)=  3.82864565E+02  sigma(3 1)= -6.71562725E-03
- sigma(3 3)=  4.10971939E+02  sigma(2 1)= -7.70813204E-04

== END DATASET(S) ==============================================================
================================================================================
  
 -outvars: echo values of variables after computation  --------
            acell      9.7000000000E-01  9.7000000000E-01  9.7000000000E-01 Bohr
              amu      5.86900000E+01  1.20110000E+01  1.59994000E+01
        autoparal           1
           diemac      1.00000000E+00
           diemix      4.00000000E-01
             ecut      2.50000000E+02 Hartree
           ecutsm      5.00000000E-01 Hartree
           etotal     -4.5913220037E+02
            fcart      6.5925599572E-07 -1.1513699138E-05 -9.7596810204E-07
                       3.0549355879E-06  3.0044703763E-07  4.7903115233E-06
                      -9.4066094224E-03  1.6296195171E-03 -7.1788201056E-03
                      -9.4280623536E-03 -1.6716998397E-03  7.1562779996E-03
                       9.4064510544E-03 -1.6151960417E-03  7.1773071857E-03
                       9.4274199149E-03  1.6704955000E-03 -7.1563736970E-03
                      -1.2936216309E-02  3.0729309155E-02 -1.4554309277E-02
                      -1.2732156283E-02 -3.0841853642E-02  1.4536580825E-02
                       1.2936819906E-02 -3.0730601718E-02  1.4553972667E-02
                       1.2732444670E-02  3.0844539839E-02 -1.4536580600E-02
                       1.7769898854E-02  2.8200534588E-02  8.5682532413E-03
                       1.7416452481E-02 -2.8290341698E-02 -8.4781836188E-03
                      -1.7774029110E-02 -2.8202192421E-02 -8.5701314412E-03
                      -1.7416127594E-02  2.8288600013E-02  8.4781924767E-03
-          fftalg         312
              ixc     -263267
              kpt      2.50000000E-01  2.50000000E-01  2.50000000E-01
                      -2.50000000E-01  2.50000000E-01  2.50000000E-01
                       2.50000000E-01 -2.50000000E-01  2.50000000E-01
                      -2.50000000E-01 -2.50000000E-01  2.50000000E-01
         kptrlatt        2    0    0      0    2    0      0    0    2
          kptrlen      1.86484505E+01
P           mkmem           1
            natom          14
            nband          65
            ngfft         144     135     160
             nkpt           4
-        np_spkpt           8
           nspden           2
           nsppol           2
            nstep          60
             nsym           1
           ntypat           3
              occ      1.000000  1.000000  1.000000  1.000000  1.000000  1.000000
                       1.000000  1.000000  1.000000  1.000000  1.000000  1.000000
                       1.000000  1.000000  1.000000  1.000000  1.000000  1.000000
                       1.000000  1.000000  1.000000  1.000000  1.000000  1.000000
                       1.000000  1.000000  1.000000  1.000000  1.000000  1.000000
                       1.000000  1.000000  1.000000  1.000000  1.000000  1.000000
                       1.000000  1.000000  1.000000  1.000000  1.000000  1.000000
                       1.000000  1.000000  1.000000  1.000000  1.000000  1.000000
                       1.000000  1.000000  1.000000  1.000000  0.000000  0.000000
                       0.000000  0.000000  0.000000  0.000000  0.000000  0.000000
                       0.000000  0.000000  0.000000  0.000000  0.000000
                       1.000000  1.000000  1.000000  1.000000  1.000000  1.000000
                       1.000000  1.000000  1.000000  1.000000  1.000000  1.000000
                       1.000000  1.000000  1.000000  1.000000  1.000000  1.000000
                       1.000000  1.000000  1.000000  1.000000  1.000000  1.000000
                       1.000000  1.000000  1.000000  1.000000  1.000000  1.000000
                       1.000000  1.000000  1.000000  1.000000  1.000000  1.000000
                       1.000000  1.000000  1.000000  1.000000  1.000000  1.000000
                       1.000000  1.000000  1.000000  1.000000  1.000000  1.000000
                       1.000000  1.000000  1.000000  1.000000  0.000000  0.000000
                       0.000000  0.000000  0.000000  0.000000  0.000000  0.000000
                       0.000000  0.000000  0.000000  0.000000  0.000000
                       1.000000  1.000000  1.000000  1.000000  1.000000  1.000000
                       1.000000  1.000000  1.000000  1.000000  1.000000  1.000000
                       1.000000  1.000000  1.000000  1.000000  1.000000  1.000000
                       1.000000  1.000000  1.000000  1.000000  1.000000  1.000000
                       1.000000  1.000000  1.000000  1.000000  1.000000  1.000000
                       1.000000  1.000000  1.000000  1.000000  1.000000  1.000000
                       1.000000  1.000000  1.000000  1.000000  1.000000  1.000000
                       1.000000  1.000000  1.000000  1.000000  1.000000  1.000000
                       1.000000  1.000000  1.000000  1.000000  0.000000  0.000000
                       0.000000  0.000000  0.000000  0.000000  0.000000  0.000000
                       0.000000  0.000000  0.000000  0.000000  0.000000
                       1.000000  1.000000  1.000000  1.000000  1.000000  1.000000
                       1.000000  1.000000  1.000000  1.000000  1.000000  1.000000
                       1.000000  1.000000  1.000000  1.000000  1.000000  1.000000
                       1.000000  1.000000  1.000000  1.000000  1.000000  1.000000
                       1.000000  1.000000  1.000000  1.000000  1.000000  1.000000
                       1.000000  1.000000  1.000000  1.000000  1.000000  1.000000
                       1.000000  1.000000  1.000000  1.000000  1.000000  1.000000
                       1.000000  1.000000  1.000000  1.000000  1.000000  1.000000
                       1.000000  1.000000  1.000000  1.000000  0.000000  0.000000
                       0.000000  0.000000  0.000000  0.000000  0.000000  0.000000
                       0.000000  0.000000  0.000000  0.000000  0.000000
                       1.000000  1.000000  1.000000  1.000000  1.000000  1.000000
                       1.000000  1.000000  1.000000  1.000000  1.000000  1.000000
                       1.000000  1.000000  1.000000  1.000000  1.000000  1.000000
                       1.000000  1.000000  1.000000  1.000000  1.000000  1.000000
                       1.000000  1.000000  1.000000  1.000000  1.000000  1.000000
                       1.000000  1.000000  1.000000  1.000000  1.000000  1.000000
                       1.000000  1.000000  1.000000  1.000000  1.000000  1.000000
                       1.000000  1.000000  1.000000  1.000000  1.000000  1.000000
                       0.000000  0.000000  0.000000  0.000000  0.000000  0.000000
                       0.000000  0.000000  0.000000  0.000000  0.000000  0.000000
                       0.000000  0.000000  0.000000  0.000000  0.000000
                       1.000000  1.000000  1.000000  1.000000  1.000000  1.000000
                       1.000000  1.000000  1.000000  1.000000  1.000000  1.000000
                       1.000000  1.000000  1.000000  1.000000  1.000000  1.000000
                       1.000000  1.000000  1.000000  1.000000  1.000000  1.000000
                       1.000000  1.000000  1.000000  1.000000  1.000000  1.000000
                       1.000000  1.000000  1.000000  1.000000  1.000000  1.000000
                       1.000000  1.000000  1.000000  1.000000  1.000000  1.000000
                       1.000000  1.000000  1.000000  1.000000  1.000000  1.000000
                       0.000000  0.000000  0.000000  0.000000  0.000000  0.000000
                       0.000000  0.000000  0.000000  0.000000  0.000000  0.000000
                       0.000000  0.000000  0.000000  0.000000  0.000000
                       1.000000  1.000000  1.000000  1.000000  1.000000  1.000000
                       1.000000  1.000000  1.000000  1.000000  1.000000  1.000000
                       1.000000  1.000000  1.000000  1.000000  1.000000  1.000000
                       1.000000  1.000000  1.000000  1.000000  1.000000  1.000000
                       1.000000  1.000000  1.000000  1.000000  1.000000  1.000000
                       1.000000  1.000000  1.000000  1.000000  1.000000  1.000000
                       1.000000  1.000000  1.000000  1.000000  1.000000  1.000000
                       1.000000  1.000000  1.000000  1.000000  1.000000  1.000000
                       0.000000  0.000000  0.000000  0.000000  0.000000  0.000000
                       0.000000  0.000000  0.000000  0.000000  0.000000  0.000000
                       0.000000  0.000000  0.000000  0.000000  0.000000
                       1.000000  1.000000  1.000000  1.000000  1.000000  1.000000
                       1.000000  1.000000  1.000000  1.000000  1.000000  1.000000
                       1.000000  1.000000  1.000000  1.000000  1.000000  1.000000
                       1.000000  1.000000  1.000000  1.000000  1.000000  1.000000
                       1.000000  1.000000  1.000000  1.000000  1.000000  1.000000
                       1.000000  1.000000  1.000000  1.000000  1.000000  1.000000
                       1.000000  1.000000  1.000000  1.000000  1.000000  1.000000
                       1.000000  1.000000  1.000000  1.000000  1.000000  1.000000
                       0.000000  0.000000  0.000000  0.000000  0.000000  0.000000
                       0.000000  0.000000  0.000000  0.000000  0.000000  0.000000
                       0.000000  0.000000  0.000000  0.000000  0.000000
           occopt           3
           prtden           0
           prteig           0
          prtkden           1
            prtwf           0
            rprim      0.0000000000E+00  1.0137047334E+01  0.0000000000E+00
                       9.6126033568E+00  0.0000000000E+00  0.0000000000E+00
                       0.0000000000E+00 -5.7455806104E+00 -9.8776109362E+00
           shiftk      5.00000000E-01  5.00000000E-01  5.00000000E-01
          spgroup           1
           spinat      0.0000000000E+00  0.0000000000E+00  1.0000000000E+00
                       0.0000000000E+00  0.0000000000E+00  1.0000000000E+00
                       0.0000000000E+00  0.0000000000E+00  1.0000000000E+00
                       0.0000000000E+00  0.0000000000E+00  1.0000000000E+00
                       0.0000000000E+00  0.0000000000E+00  1.0000000000E+00
                       0.0000000000E+00  0.0000000000E+00  1.0000000000E+00
                       0.0000000000E+00  0.0000000000E+00  1.0000000000E+00
                       0.0000000000E+00  0.0000000000E+00  1.0000000000E+00
                       0.0000000000E+00  0.0000000000E+00  1.0000000000E+00
                       0.0000000000E+00  0.0000000000E+00  1.0000000000E+00
                       0.0000000000E+00  0.0000000000E+00  1.0000000000E+00
                       0.0000000000E+00  0.0000000000E+00  1.0000000000E+00
                       0.0000000000E+00  0.0000000000E+00  1.0000000000E+00
                       0.0000000000E+00  0.0000000000E+00  1.0000000000E+00
           strten      1.3874444984E-02  1.3013304239E-02  1.3968654647E-02
                       1.0655332816E-04 -2.2825956930E-07 -2.6199412708E-08
           toldfe      1.00000000E-06 Hartree
           tsmear      1.00000000E-03 Hartree
            typat      1  1  2  2  2  2  3  3  3  3  3  3  3  3
          usekden           1
              wtk        0.25000    0.25000    0.25000    0.25000
           xangst      2.4670837466E+00 -1.4746086999E+00 -2.5350981926E+00
                       0.0000000000E+00  0.0000000000E+00  0.0000000000E+00
                       3.0615867854E+00  1.1552881029E+00 -2.0829837108E+00
                       5.9450303876E-01  2.5734687764E+00 -4.5211448187E-01
                       1.8725807079E+00  1.0988600765E+00 -2.9872126745E+00
                       4.3396644545E+00 -3.1932059708E-01 -4.6180819034E+00
                       1.4435104368E+00  2.1675341205E+00 -3.4404223188E+00
                       3.9105941835E+00 -1.3879946411E+00 -4.1648722591E+00
                       3.4906570564E+00  8.6614058853E-02 -1.6297740665E+00
                       1.0235733098E+00  3.6421428204E+00 -9.0532412616E-01
                       3.5312652549E+00  2.2625565457E+00 -1.8571064618E+00
                       1.0641815083E+00  1.4662003336E+00 -6.7799173084E-01
                       1.4029022384E+00 -8.4083663496E-03 -3.2130899235E+00
                       3.8699859850E+00  7.8794784573E-01 -4.3922046545E+00
            xcart      4.6621126280E+00 -2.7866065961E+00 -4.7906413041E+00
                       0.0000000000E+00  0.0000000000E+00  0.0000000000E+00
                       5.7855605565E+00  2.1831781190E+00 -3.9362687526E+00
                       1.1234479284E+00  4.8631511989E+00 -8.5437255145E-01
                       3.5386646996E+00  2.0765446029E+00 -5.6450138555E+00
                       8.2007773276E+00 -6.0342847708E-01 -8.7269100567E+00
                       2.7278393956E+00  4.0960458714E+00 -6.5014559640E+00
                       7.3899520236E+00 -2.6229297456E+00 -7.8704679482E+00
                       6.5963858605E+00  1.6367685049E-01 -3.0798266441E+00
                       1.9342732325E+00  6.8826524674E+00 -1.7108146599E+00
                       6.6731242344E+00  4.2756122315E+00 -3.5094226124E+00
                       2.0110116063E+00  2.7707170864E+00 -1.2812186916E+00
                       2.6511010217E+00 -1.5889509626E-02 -6.0718599957E+00
                       7.3132136497E+00  1.4890056354E+00 -8.3000639165E+00
             xred      1.7171761977E-17  5.0000000000E-01  5.0000000000E-01
                       0.0000000000E+00  0.0000000000E+00  0.0000000000E+00
                       4.5488100000E-01  6.2048700000E-01  4.1082900000E-01
                       5.4511900000E-01  1.2048700000E-01  8.9171000000E-02
                       5.4511900000E-01  3.7951300000E-01  5.8917100000E-01
                       4.5488100000E-01  8.7951300000E-01  9.1082900000E-01
                       8.0116400000E-01  2.9255400000E-01  6.7855800000E-01
                       1.9883600000E-01  7.9255400000E-01  8.2144200000E-01
                       1.9883600000E-01  7.0744600000E-01  3.2144200000E-01
                       8.0116400000E-01  2.0744600000E-01  1.7855800000E-01
                       6.4242900000E-01  7.1567600000E-01  3.6627900000E-01
                       3.5757100000E-01  2.1567600000E-01  1.3372100000E-01
                       3.5757100000E-01  2.8432400000E-01  6.3372100000E-01
                       6.4242900000E-01  7.8432400000E-01  8.6627900000E-01
            znucl       28.00000    6.00000    8.00000

================================================================================


- Timing analysis has been suppressed with timopt=0



================================================================================

 Suggested references for the acknowledgment of ABINIT usage.

 The users of ABINIT have little formal obligations with respect to the ABINIT group
 (those specified in the GNU General Public License, http://www.gnu.org/copyleft/gpl.txt).
 However, it is common practice in the scientific literature,
 to acknowledge the efforts of people that have made the research possible.
 In this spirit, please find below suggested citations of work written by ABINIT developers,
 corresponding to implementations inside of ABINIT that you have used in the present run.
 Note also that it will be of great value to readers of publications presenting these results,
 to read papers enabling them to understand the theoretical formalism and details
 of the ABINIT implementation.
 For information on why they are suggested, see also https://docs.abinit.org/theory/acknowledgments.
-
- [1] Libxc: A library of exchange and correlation functionals for density functional theory.
- M.A.L. Marques, M.J.T. Oliveira, T. Burnus, Computer Physics Communications 183, 2227 (2012).
- Comment: to be cited when LibXC is used (negative value of ixc)
- Strong suggestion to cite this paper.
- DOI and bibtex: see https://docs.abinit.org/theory/bibliography/#marques2012
-
- [2] The Abinit project: Impact, environment and recent developments.
- Computer Phys. Comm. 248, 107042 (2020).
- X.Gonze, B. Amadon, G. Antonius, F.Arnardi, L.Baguet, J.-M.Beuken,
- J.Bieder, F.Bottin, J.Bouchet, E.Bousquet, N.Brouwer, F.Bruneval,
- G.Brunin, T.Cavignac, J.-B. Charraud, Wei Chen, M.Cote, S.Cottenier,
- J.Denier, G.Geneste, Ph.Ghosez, M.Giantomassi, Y.Gillet, O.Gingras,
- D.R.Hamann, G.Hautier, Xu He, N.Helbig, N.Holzwarth, Y.Jia, F.Jollet,
- W.Lafargue-Dit-Hauret, K.Lejaeghere, M.A.L.Marques, A.Martin, C.Martins,
- H.P.C. Miranda, F.Naccarato, K. Persson, G.Petretto, V.Planes, Y.Pouillon,
- S.Prokhorenko, F.Ricci, G.-M.Rignanese, A.H.Romero, M.M.Schmitt, M.Torrent,
- M.J.van Setten, B.Van Troeye, M.J.Verstraete, G.Zerah and J.W.Zwanzig
- Comment: the fifth generic paper describing the ABINIT project.
- Note that a version of this paper, that is not formatted for Computer Phys. Comm. 
- is available at https://www.abinit.org/sites/default/files/ABINIT20.pdf .
- The licence allows the authors to put it on the Web.
- DOI and bibtex: see https://docs.abinit.org/theory/bibliography/#gonze2020
-
- [3] Optimized norm-conserving Vanderbilt pseudopotentials.
- D.R. Hamann, Phys. Rev. B 88, 085117 (2013).
- Comment: Some pseudopotential generated using the ONCVPSP code were used.
- DOI and bibtex: see https://docs.abinit.org/theory/bibliography/#hamann2013
-
- [4] ABINIT: Overview, and focus on selected capabilities
- J. Chem. Phys. 152, 124102 (2020).
- A. Romero, D.C. Allan, B. Amadon, G. Antonius, T. Applencourt, L.Baguet,
- J.Bieder, F.Bottin, J.Bouchet, E.Bousquet, F.Bruneval,
- G.Brunin, D.Caliste, M.Cote,
- J.Denier, C. Dreyer, Ph.Ghosez, M.Giantomassi, Y.Gillet, O.Gingras,
- D.R.Hamann, G.Hautier, F.Jollet, G. Jomard,
- A.Martin, 
- H.P.C. Miranda, F.Naccarato, G.Petretto, N.A. Pike, V.Planes,
- S.Prokhorenko, T. Rangel, F.Ricci, G.-M.Rignanese, M.Royo, M.Stengel, M.Torrent,
- M.J.van Setten, B.Van Troeye, M.J.Verstraete, J.Wiktor, J.W.Zwanziger, and X.Gonze.
- Comment: a global overview of ABINIT, with focus on selected capabilities .
- Note that a version of this paper, that is not formatted for J. Chem. Phys 
- is available at https://www.abinit.org/sites/default/files/ABINIT20_JPC.pdf .
- The licence allows the authors to put it on the Web.
- DOI and bibtex: see https://docs.abinit.org/theory/bibliography/#romero2020
-
- [5] Recent developments in the ABINIT software package.
- Computer Phys. Comm. 205, 106 (2016).
- X.Gonze, F.Jollet, F.Abreu Araujo, D.Adams, B.Amadon, T.Applencourt,
- C.Audouze, J.-M.Beuken, J.Bieder, A.Bokhanchuk, E.Bousquet, F.Bruneval
- D.Caliste, M.Cote, F.Dahm, F.Da Pieve, M.Delaveau, M.Di Gennaro,
- B.Dorado, C.Espejo, G.Geneste, L.Genovese, A.Gerossier, M.Giantomassi,
- Y.Gillet, D.R.Hamann, L.He, G.Jomard, J.Laflamme Janssen, S.Le Roux,
- A.Levitt, A.Lherbier, F.Liu, I.Lukacevic, A.Martin, C.Martins,
- M.J.T.Oliveira, S.Ponce, Y.Pouillon, T.Rangel, G.-M.Rignanese,
- A.H.Romero, B.Rousseau, O.Rubel, A.A.Shukri, M.Stankovski, M.Torrent,
- M.J.Van Setten, B.Van Troeye, M.J.Verstraete, D.Waroquier, J.Wiktor,
- B.Xu, A.Zhou, J.W.Zwanziger.
- Comment: the fourth generic paper describing the ABINIT project.
- Note that a version of this paper, that is not formatted for Computer Phys. Comm. 
- is available at https://www.abinit.org/sites/default/files/ABINIT16.pdf .
- The licence allows the authors to put it on the Web.
- DOI and bibtex: see https://docs.abinit.org/theory/bibliography/#gonze2016
-
- Proc.   0 individual time (sec): cpu=       4731.6  wall=       4743.8

================================================================================

 Calculation completed.
.Delivered   0 WARNINGs and   0 COMMENTs to log file.
+Overall time at end (sec) : cpu=      37857.6  wall=      37951.3
