:MDSTEP: 20
:R(Bohr):
  3.8057803976E+01   3.5132928026E-02   3.0681138824E+01
  4.1033051392E+00   3.7904072337E+01   3.5070969141E+01
  3.8151787603E+01   3.3690995673E+00   3.4364085221E+01
  3.7974529963E+01   3.8051185573E+01   2.2828033115E+01
  3.6101793609E+00   2.7683904442E-01   2.6654554142E+01
  7.1467169849E+00   2.3175318319E-01   3.0293475363E+01
  1.0710732963E+01   3.8208776065E+01   3.4094823183E+01
  3.8059023622E+01   3.7249342127E+00   2.6813543176E+01
  3.8051439063E+00   3.7225054004E+00   3.0252428321E+01
  7.2819142033E+00   3.5473653322E+00   3.4324900737E+01
  3.8146751928E+01   7.6859571210E+00   3.0568581364E+01
  3.8945496430E+00   7.2390550940E+00   3.4709677848E+01
  2.3370107528E-02   1.1075628299E+01   3.4914734601E+01
  5.5474270185E-01   3.8199780720E+01   1.5094644442E+01
  3.0174844143E+00   4.2869408843E-01   1.8802246990E+01
  7.7115576554E+00   3.7635991500E+01   2.2638194260E+01
  1.1169819277E+01   3.1191698425E-01   2.6595012695E+01
  1.5147423681E+01   3.8031522021E+01   3.0174265937E+01
  1.8981913109E+01   3.7984337584E+01   3.4116051492E+01
  3.8118127985E+01   4.4185950606E+00   1.9011048375E+01
  3.9213462734E+00   3.5899938723E+00   2.2998880568E+01
  8.2569408239E+00   3.8190391107E+00   2.6730935894E+01
  1.1347739714E+01   4.2509559600E+00   3.0344739691E+01
  1.5347524930E+01   4.0937942897E+00   3.4558408790E+01
  1.7203482326E-01   7.9088985418E+00   2.2989573525E+01
  4.1424115246E+00   7.0902941377E+00   2.6220352382E+01
  7.1028003895E+00   7.3050850437E+00   3.0889911646E+01
  1.1133290869E+01   7.0038734486E+00   3.4967900257E+01
  3.7791822582E+01   1.1198764304E+01   2.7298288725E+01
  4.1165093638E+00   1.1691065373E+01   3.0984949768E+01
  7.4777381336E+00   1.2171658380E+01   3.4384172179E+01
  3.8161103645E+01   1.5179725730E+01   3.0241212729E+01
  4.1773414472E+00   1.5844591613E+01   3.3924561919E+01
  3.7890262856E+01   1.9038972564E+01   3.4185799462E+01
  3.8076490009E+01   4.3643078693E-01   7.8044176215E+00
  3.7891808087E+00   3.8127278975E+01   1.1124617829E+01
  7.8353864662E+00   2.6613715996E-01   1.5271642644E+01
  1.1878547236E+01   2.9331607096E-01   1.8979929605E+01
  1.4827611609E+01   3.7940040012E+01   2.2911631365E+01
  1.9101116294E+01   3.7875180065E+01   2.7055151813E+01
  2.3239055363E+01   1.2156011506E-01   3.0397175903E+01
  2.6928118192E+01   1.2814717041E-01   3.4362008607E+01
  3.8178683980E+01   3.6815920063E+00   1.1513103929E+01
  4.3830836769E+00   3.9632368912E+00   1.5726968341E+01
  7.5345902990E+00   3.3621537837E+00   1.9752434774E+01
  1.1251187493E+01   3.5619868408E+00   2.2919475674E+01
  1.5545342668E+01   3.9800846081E+00   2.7065460673E+01
  1.9044135566E+01   3.6710183856E+00   3.0881780447E+01
  2.3265708156E+01   4.1405499614E+00   3.4789826640E+01
  3.7767608143E+01   7.4615150118E+00   1.5226057508E+01
  3.5967469855E+00   7.5535272893E+00   1.8977801778E+01
  7.9358585444E+00   7.5265433701E+00   2.3291208268E+01
  1.1490882380E+01   8.1543836819E+00   2.6611473372E+01
  1.4902854188E+01   7.7360386875E+00   3.0293916642E+01
  1.9108869418E+01   7.3160327067E+00   3.4725084517E+01
  3.7877061675E+01   1.1125304551E+01   1.9226107695E+01
  4.0172485385E+00   1.1575038278E+01   2.3226257165E+01
  7.0378729520E+00   1.1479989822E+01   2.6995194650E+01
  1.1549418620E+01   1.1388532611E+01   3.0421737743E+01
  1.5828544065E+01   1.1104277424E+01   3.4359955077E+01
  3.7863449216E+01   1.5133618019E+01   2.3285162178E+01
  3.6344432292E+00   1.5440221954E+01   2.6808993662E+01
  7.7627238071E+00   1.5648368971E+01   3.0112310871E+01
  1.1516917679E+01   1.4566359392E+01   3.4481423492E+01
  3.8075586871E+01   1.9239800344E+01   2.6829230427E+01
  4.1257705854E+00   1.9606467260E+01   3.0607248950E+01
  7.9695405505E+00   1.8979651417E+01   3.4287612904E+01
  1.9818023383E-01   2.2884873516E+01   3.0480313530E+01
  4.2889041228E+00   2.3290735577E+01   3.4831992387E+01
  3.8013781290E+01   2.6392560581E+01   3.4616667150E+01
  3.8240523634E+01   3.7985651740E+01   3.7852793735E+01
  3.2276080732E+00   6.9038620845E-02   4.0311581743E+00
  7.5619891593E+00   9.7858746789E-02   7.1564885792E+00
  1.1688154238E+01   1.6194032043E-01   1.1546582561E+01
  1.5546130061E+01   3.8062151145E+01   1.5752499433E+01
  1.8648785555E+01   6.3401369213E-02   1.9315580842E+01
  2.3193743254E+01   3.8053956519E+01   2.3100231395E+01
  2.6782419061E+01   4.8505988775E-02   2.6610577340E+01
  3.1053507260E+01   1.3038137263E-03   3.0810354657E+01
  3.4416162613E+01   3.7951283900E+01   3.4734750175E+01
  3.8528373793E-01   4.2468228709E+00   3.6652022397E+00
  3.6790222209E+00   3.7599970415E+00   8.1287311418E+00
  8.0218172116E+00   3.8876405976E+00   1.1486458313E+01
  1.1454318007E+01   3.6128336282E+00   1.5185782331E+01
  1.5083317846E+01   3.9964037605E+00   1.9059543688E+01
  1.9010597356E+01   3.5802343585E+00   2.2843501800E+01
  2.2961263171E+01   3.8170241808E+00   2.6416587073E+01
  2.7307667771E+01   3.6344287579E+00   3.0114062187E+01
  3.0821759082E+01   3.6891355796E+00   3.4243116977E+01
  1.3698092805E-01   7.8765169082E+00   7.6142982854E+00
  3.4894630665E+00   7.6309019020E+00   1.1525059766E+01
  7.8469935020E+00   7.7165483502E+00   1.5630667645E+01
  1.1491832184E+01   7.8548502034E+00   1.8901278866E+01
  1.5473417782E+01   7.0806790786E+00   2.3075133892E+01
  1.9339058499E+01   7.1450525954E+00   2.6902389491E+01
  2.2744628032E+01   7.3388252634E+00   3.0833521970E+01
  2.7067328476E+01   7.1633639992E+00   3.4451102479E+01
  1.4000597628E-01   1.1495923984E+01   1.1778152270E+01
  3.7245023775E+00   1.1221501208E+01   1.5869506499E+01
  7.4444738035E+00   1.0915247760E+01   1.9152466998E+01
  1.1409148773E+01   1.1587443655E+01   2.2893039719E+01
  1.5583186684E+01   1.1562580700E+01   2.7130335999E+01
  1.9624870242E+01   1.1075221163E+01   3.0304947574E+01
  2.2378698438E+01   1.1073323848E+01   3.4236265065E+01
  2.3119386639E-01   1.5352229173E+01   1.5425925093E+01
  4.0241783006E+00   1.6014149676E+01   1.8559297905E+01
  7.3074049102E+00   1.5754994990E+01   2.3110952595E+01
  1.1970660837E+01   1.5637162492E+01   2.7303699129E+01
  1.5475347432E+01   1.5276093770E+01   3.1058907103E+01
  1.9636056723E+01   1.5952546900E+01   3.4759630729E+01
  3.7682079986E+01   1.9096358150E+01   1.8967877956E+01
  3.2372680348E+00   1.9154801248E+01   2.2790001741E+01
  8.0022452860E+00   1.9392585817E+01   2.6867220159E+01
  1.1775165070E+01   1.9073314331E+01   3.0681347977E+01
  1.4808656351E+01   1.8850454260E+01   3.4134797073E+01
  1.0753550622E-01   2.3423877120E+01   2.2944188525E+01
  3.9537676250E+00   2.2530224675E+01   2.6337004682E+01
  7.9335143128E+00   2.2945202274E+01   3.0534772280E+01
  1.1387876943E+01   2.2930126266E+01   3.4279327112E+01
  3.8231422913E+01   2.6762229004E+01   2.6689380680E+01
  3.1864922696E+00   2.6629249761E+01   3.0473756588E+01
  6.8617492940E+00   2.7365467347E+01   3.4146315281E+01
  3.7760490901E+01   3.0084657247E+01   3.1296912535E+01
  3.8443920585E+00   3.0805937056E+01   3.4689131086E+01
  3.8211190498E+01   3.4456995042E+01   3.4386642574E+01
  7.6625669474E+00   3.7956955220E+01   3.4910797045E-01
  1.1521051382E+01   3.8163502979E+01   4.0034484087E+00
  1.5591117857E+01   3.8069281047E-01   7.6018764535E+00
  1.8894431765E+01   9.4229742458E-02   1.1663518672E+01
  2.3001046787E+01   3.8147200241E+01   1.5267749466E+01
  2.7079760481E+01   3.7991863709E+01   1.8785450981E+01
  3.1284594629E+01   3.8238958293E+01   2.2960269360E+01
  3.4403845284E+01   2.2073917685E-01   2.6946413893E+01
  3.5175223143E+00   3.6197871824E+00   3.8071421746E+01
  7.9226226980E+00   4.0417473398E+00   3.9398849453E+00
  1.1476764104E+01   3.6288979749E+00   7.4910773694E+00
  1.5698615838E+01   3.8316348468E+00   1.2025481345E+01
  1.9248910126E+01   3.7297048562E+00   1.5488756966E+01
  2.3153452257E+01   3.4525805548E+00   1.9547371224E+01
  2.6657550917E+01   3.4756443312E+00   2.2951996371E+01
  3.0889815425E+01   3.5458297255E+00   2.6372980569E+01
  3.4229250893E+01   4.2799157173E+00   3.0700850318E+01
  3.7928065930E+01   7.3973074200E+00   8.7584584994E-02
  3.6521380952E+00   7.6253802950E+00   4.0067199948E+00
  7.1980382155E+00   7.9800873680E+00   7.9364716405E+00
  1.1448225700E+01   7.3678704598E+00   1.1827758644E+01
  1.5365576686E+01   7.1225792850E+00   1.5490760301E+01
  1.9289951938E+01   7.3751174996E+00   1.9183038257E+01
  2.2822758799E+01   7.8806534069E+00   2.3292379954E+01
  2.6469073926E+01   7.6086822851E+00   2.6548057402E+01
  3.0386588666E+01   7.5825440864E+00   3.0765531919E+01
  3.4759280001E+01   7.2491355569E+00   3.4712030820E+01
  3.0770750202E-01   1.1296564354E+01   4.1185022862E+00
  3.5365764641E+00   1.1255664215E+01   7.5811370436E+00
  7.4825378128E+00   1.2086418104E+01   1.1269811344E+01
  1.1762686385E+01   1.1165551837E+01   1.5122511302E+01
  1.4981362741E+01   1.1415426666E+01   1.8866334356E+01
  1.9259641247E+01   1.0998515948E+01   2.2996385668E+01
  2.3291245768E+01   1.1538910578E+01   2.6690647545E+01
  2.6970165508E+01   1.1211116398E+01   3.0657563825E+01
  3.0346612391E+01   1.1556987357E+01   3.3930081165E+01
  3.2602144201E-01   1.5574702116E+01   7.1668715105E+00
  3.6782398155E+00   1.5001336785E+01   1.1499261974E+01
  8.1283893214E+00   1.5523179088E+01   1.5287063075E+01
  1.1305392326E+01   1.4885143432E+01   1.8781646163E+01
  1.4716781781E+01   1.5492909084E+01   2.3086277916E+01
  1.8662544195E+01   1.5722098353E+01   2.6962799468E+01
  2.2828217213E+01   1.5116912597E+01   3.0617233016E+01
  2.6949806558E+01   1.5534770012E+01   3.4182250721E+01
  6.9818434483E-02   1.8903536028E+01   1.0940565381E+01
  3.5111617873E+00   1.9416855701E+01   1.5097210672E+01
  8.0241816801E+00   1.8988709978E+01   1.8973450397E+01
  1.1512507410E+01   1.9089095963E+01   2.2635863859E+01
  1.5368138032E+01   1.9346698600E+01   2.6033270716E+01
  1.9079360418E+01   1.9257117633E+01   3.0704133161E+01
  2.3192689930E+01   1.9546099723E+01   3.4649958102E+01
  3.8186534505E+01   2.2753038758E+01   1.5205590915E+01
  3.4301634859E+00   2.2648668615E+01   1.9145614375E+01
  7.3318524544E+00   2.3210866943E+01   2.2811713252E+01
  1.1218108515E+01   2.3350401230E+01   2.6928732581E+01
  1.5330517502E+01   2.3366296165E+01   3.0724287810E+01
  1.8914799194E+01   2.3013088022E+01   3.4473033882E+01
  1.9304529536E-01   2.6995578685E+01   1.8796210636E+01
  3.2965965695E+00   2.7127450019E+01   2.2970576178E+01
  7.5894410174E+00   2.6787345699E+01   2.7147761862E+01
  1.1795793884E+01   2.6878382378E+01   3.0299369535E+01
  1.4960702904E+01   2.6912476803E+01   3.5034228302E+01
  3.8063800933E+01   3.0804461625E+01   2.3416681974E+01
  3.7020178846E+00   3.0689283302E+01   2.6760187841E+01
  7.7189434282E+00   3.0766432811E+01   3.0817771688E+01
  1.1123567262E+01   3.0050064513E+01   3.4791206507E+01
  3.7689156380E+01   3.4805326845E+01   2.6596485917E+01
  3.8913154222E+00   3.4598915126E+01   3.0637413946E+01
  7.9632377462E+00   3.4134538902E+01   3.4144409236E+01
  1.5581239519E+01   3.8061563588E+01   1.9136296559E-01
  1.9202436170E+01   3.8204697303E+01   3.8602881774E+00
  2.2562798726E+01   3.9204564062E-02   7.5817750354E+00
  2.6440694199E+01   3.6818208800E-01   1.1263383686E+01
  3.1024899677E+01   3.8053765637E+01   1.5465140283E+01
  3.4908454939E+01   9.4668384962E-03   1.9194080577E+01
  1.2037635193E+01   3.3529457998E+00   2.0417091499E-01
  1.5347432884E+01   3.4128635064E+00   4.0256130173E+00
  1.9361491099E+01   3.7504505989E+00   7.9805488523E+00
  2.3213573623E+01   3.9124937884E+00   1.1489249205E+01
  2.6711725711E+01   3.5738616567E+00   1.5175908944E+01
  3.0162196475E+01   3.7495920970E+00   1.9103299747E+01
  3.4236907429E+01   4.1949794895E+00   2.2558644928E+01
  7.6532276434E+00   7.8102971749E+00   5.5030733801E-01
  1.2227193910E+01   7.4899669691E+00   3.5434335413E+00
  1.5698531643E+01   7.9501879180E+00   8.1919854619E+00
  1.9241062293E+01   7.4034219257E+00   1.1883566135E+01
  2.3202541854E+01   7.5882472367E+00   1.4792367954E+01
  2.6221260363E+01   7.3842874012E+00   1.8692953991E+01
  3.0328038168E+01   7.9334891033E+00   2.2643849128E+01
  3.4063204388E+01   7.8793523485E+00   2.6456163256E+01
  3.8403063416E+00   1.1594453288E+01   3.8026892698E+01
  6.9670252557E+00   1.1611633797E+01   4.0179098193E+00
  1.1729422656E+01   1.1089295249E+01   8.1962544005E+00
  1.5775547790E+01   1.1552847589E+01   1.1524150291E+01
  1.8957742951E+01   1.1256884037E+01   1.5015700834E+01
  2.2765843964E+01   1.1427534878E+01   1.9199800610E+01
  2.6536743205E+01   1.1586993058E+01   2.2662885214E+01
  3.0029646142E+01   1.1571173570E+01   2.6874445551E+01
  3.4856998493E+01   1.1553339059E+01   3.1187784702E+01
  6.5244946995E-03   1.4999246514E+01   3.7788894557E+01
  3.9236053087E+00   1.5320839161E+01   3.6742473638E+00
  7.7480676935E+00   1.5531182069E+01   7.5009979135E+00
  1.1762383340E+01   1.5170696957E+01   1.1703502313E+01
  1.5628681788E+01   1.5186107987E+01   1.5176269313E+01
  1.9111124451E+01   1.5468875093E+01   1.9116655861E+01
  2.3050323628E+01   1.5444688746E+01   2.2884480728E+01
  2.6595662392E+01   1.5094224137E+01   2.6911993352E+01
  3.1042888720E+01   1.5487256257E+01   3.0688564022E+01
  3.4413628036E+01   1.5162431967E+01   3.4820903577E+01
  1.8528755685E-01   1.9276126157E+01   3.4283927769E+00
  3.7120622536E+00   1.8937278206E+01   7.5764375945E+00
  7.6195413376E+00   1.9464937398E+01   1.1611171955E+01
  1.1343700154E+01   1.9425534923E+01   1.5339547299E+01
  1.5302308735E+01   1.9410452398E+01   1.8904193704E+01
  1.9398818502E+01   1.9163342324E+01   2.2680752624E+01
  2.2794541715E+01   1.9211832410E+01   2.6323443903E+01
  2.6986037020E+01   1.8836770226E+01   3.0249498435E+01
  3.0619372046E+01   1.9026240318E+01   3.4155382277E+01
  3.8134264154E+01   2.3307299034E+01   7.9383314621E+00
  3.7424624007E+00   2.2703713811E+01   1.1597166235E+01
  7.5959844955E+00   2.2990146068E+01   1.5313611845E+01
  1.1055887144E+01   2.3117579435E+01   1.9222897583E+01
  1.5221268368E+01   2.2993145565E+01   2.3133906675E+01
  1.9290037074E+01   2.3137736102E+01   2.6837321687E+01
  2.3411207061E+01   2.3145885196E+01   3.0633681411E+01
  2.6684845638E+01   2.2787019675E+01   3.4075726456E+01
  1.9940888215E-01   2.6230618978E+01   1.1857316695E+01
  3.9352046669E+00   2.7157085827E+01   1.4886354621E+01
  7.9054806901E+00   2.7339206652E+01   1.8945869241E+01
  1.1767706151E+01   2.7009381483E+01   2.2933552951E+01
  1.5508007359E+01   2.6895044607E+01   2.6694806337E+01
  1.9528759076E+01   2.6467263978E+01   3.0495772637E+01
  2.3009464415E+01   2.7066783886E+01   3.4121422989E+01
  3.7961122760E+01   3.0540200922E+01   1.5596731934E+01
  3.9485405510E+00   3.0367889985E+01   1.9036197638E+01
  7.7224149028E+00   3.0230956702E+01   2.3148214477E+01
  1.1779384569E+01   3.1160430369E+01   2.6803088163E+01
  1.5679120127E+01   3.0454876770E+01   3.0718192642E+01
  1.9269362062E+01   3.0508135846E+01   3.4395977072E+01
  2.6045283370E-01   3.4119237521E+01   1.8948163126E+01
  3.6172482993E+00   3.4107913147E+01   2.2908111219E+01
  8.0253189772E+00   3.4814012180E+01   2.6688786678E+01
  1.1292441384E+01   3.4403169178E+01   3.0478860814E+01
  1.5018873723E+01   3.4530081351E+01   3.4268963219E+01
  2.3160991177E+01   1.7490820996E-01   4.6895239088E-01
  2.6564559074E+01   3.1607284463E-01   3.6837335483E+00
  3.0789809061E+01   3.8164748893E+01   7.8832381336E+00
  3.4419111721E+01   5.6553837089E-01   1.1336031682E+01
  1.9135650958E+01   3.8592409754E+00   7.5085475147E-02
  2.3195859741E+01   4.0833295489E+00   3.9408287027E+00
  2.6919359383E+01   3.5296136929E+00   7.3861159104E+00
  3.0509106818E+01   3.9365050787E+00   1.1052206955E+01
  3.4494351771E+01   3.7199469058E+00   1.4939253858E+01
  1.4855910196E+01   7.7444260291E+00   3.7925590408E+01
  1.9191350809E+01   7.3658972549E+00   3.7573770632E+00
  2.2867705145E+01   7.7348223342E+00   8.1181228065E+00
  2.7291856928E+01   8.0884802229E+00   1.1367589696E+01
  3.0806050825E+01   7.5122908283E+00   1.5448184653E+01
  3.3965060250E+01   7.8493338190E+00   1.8813990736E+01
  1.1021108004E+01   1.1331525940E+01   4.6845370653E-02
  1.5324614768E+01   1.1385779908E+01   3.9489228849E+00
  1.9040650734E+01   1.1837023388E+01   7.2893550132E+00
  2.3308521608E+01   1.1708247096E+01   1.1189526852E+01
  2.7123512881E+01   1.1526019967E+01   1.5029103342E+01
  3.0849493015E+01   1.1888298000E+01   1.9322636636E+01
  3.4385829691E+01   1.1470463607E+01   2.3461362442E+01
  7.7615930927E+00   1.5265567564E+01   3.4331555121E-01
  1.1569161908E+01   1.5090358792E+01   3.5517857904E+00
  1.5324743680E+01   1.5323566557E+01   8.0235946071E+00
  1.9642574915E+01   1.5099786926E+01   1.1183728438E+01
  2.2478127624E+01   1.5529789872E+01   1.5330001690E+01
  2.6684639793E+01   1.5327725905E+01   1.9038405234E+01
  2.9987092690E+01   1.5508007182E+01   2.3286648067E+01
  3.4415492614E+01   1.5572758911E+01   2.6747507184E+01
  3.3972621845E+00   1.9560526133E+01   3.7745207509E+01
  7.7542786423E+00   1.9327326379E+01   3.6725307694E+00
  1.1887612666E+01   1.8752991088E+01   7.5464570702E+00
  1.5571793433E+01   1.9122860115E+01   1.1817886272E+01
  1.9326496970E+01   1.9451098406E+01   1.5323654986E+01
  2.3054633773E+01   1.8943654349E+01   1.8987409021E+01
  2.6713711242E+01   1.9574221584E+01   2.2613505085E+01
  3.0748535842E+01   1.9058272518E+01   2.6869031658E+01
  3.4419862692E+01   1.9222927752E+01   3.0846288563E+01
  4.2684070528E-02   2.2963035779E+01   8.6672002176E-02
  3.6159523143E+00   2.2680823878E+01   4.0773198441E+00
  8.1568043816E+00   2.2452962456E+01   7.7505418449E+00
  1.2055124173E+01   2.2533652837E+01   1.1077302452E+01
  1.5048135674E+01   2.3357740258E+01   1.5226492893E+01
  1.9125315923E+01   2.2835195941E+01   1.8852940192E+01
  2.2715392467E+01   2.2990600617E+01   2.2537973116E+01
  2.6866050121E+01   2.2626309902E+01   2.7121223431E+01
  3.1116853672E+01   2.2847554121E+01   3.0745877427E+01
  3.4212302732E+01   2.2492114194E+01   3.4549907775E+01
  3.8089588727E+01   2.7007816389E+01   3.8255235692E+00
  4.2652399081E+00   2.6830919248E+01   7.6720377648E+00
  7.5715237404E+00   2.6583256893E+01   1.1618843149E+01
  1.1640721683E+01   2.6464740245E+01   1.5642340265E+01
  1.5146971261E+01   2.6917876919E+01   1.9295208173E+01
  1.8843958919E+01   2.6556735917E+01   2.2521731470E+01
  2.2728887172E+01   2.6767291871E+01   2.6683395282E+01
  2.6589955699E+01   2.6705814818E+01   2.9859279469E+01
  3.0312959232E+01   2.6806575698E+01   3.4619143837E+01
  3.1206885143E-01   3.0093022199E+01   7.9136484072E+00
  3.9456205643E+00   3.0737708709E+01   1.1239038643E+01
  7.7584380026E+00   3.0652830139E+01   1.4913775670E+01
  1.1446108346E+01   3.0755505091E+01   1.9004280787E+01
  1.5321973410E+01   3.0697145670E+01   2.2638607921E+01
  1.8874591408E+01   3.0380852842E+01   2.6496816279E+01
  2.2967989121E+01   3.0447731369E+01   3.0700421871E+01
  2.6924991032E+01   3.0388615645E+01   3.4406599973E+01
  3.8016708744E+01   3.5001354881E+01   1.1716305741E+01
  3.8514153982E+00   3.3864143235E+01   1.5365949575E+01
  7.6995486281E+00   3.4466870029E+01   1.9172328168E+01
  1.1684489033E+01   3.4247614749E+01   2.2936631688E+01
  1.5563126271E+01   3.4231780797E+01   2.6999134326E+01
  1.9358824509E+01   3.3917922213E+01   3.1018123736E+01
  2.3382720634E+01   3.4514391426E+01   3.4662520300E+01
  3.0947549623E+01   3.8011983421E+01   1.0703526455E-01
  3.4803247400E+01   6.2000879618E-01   3.7948140482E+00
  2.6567773700E+01   3.7987219647E+00   8.1219037552E-02
  3.0874498106E+01   3.7106778578E+00   4.2707974361E+00
  3.4679187202E+01   3.9346596224E+00   7.8248897492E+00
  2.2986125647E+01   7.5800552690E+00   4.0982014276E-01
  2.7145025317E+01   7.5220211322E+00   3.3527495885E+00
  3.0236870760E+01   7.4756978471E+00   7.7304045550E+00
  3.4646409732E+01   7.6813885150E+00   1.1178593591E+01
  1.9077895425E+01   1.1445369905E+01   3.3465230721E-02
  2.2821436319E+01   1.1321192359E+01   3.7309616986E+00
  2.6589796500E+01   1.1218277917E+01   7.2534438231E+00
  3.0820214704E+01   1.1600639688E+01   1.1367081582E+01
  3.4458061288E+01   1.2211832208E+01   1.5613802300E+01
  1.5535538736E+01   1.5610481629E+01   2.5820190791E-01
  1.9026479552E+01   1.5370271876E+01   3.4751704371E+00
  2.2993218430E+01   1.5174178520E+01   7.3569684139E+00
  2.7002613553E+01   1.5624724185E+01   1.1451974681E+01
  3.0736179108E+01   1.5381365132E+01   1.5338407847E+01
  3.4189356206E+01   1.5283594202E+01   1.9511927085E+01
  1.2116249720E+01   1.9174513185E+01   3.8043693824E+01
  1.5369407912E+01   1.9437525602E+01   3.7236152312E+00
  1.9362048864E+01   1.9414098723E+01   7.9533314075E+00
  2.2801533164E+01   1.9171114970E+01   1.1667443119E+01
  2.7474576660E+01   1.9197511927E+01   1.5367531231E+01
  3.0468676948E+01   1.9676772436E+01   1.9486856278E+01
  3.4552512069E+01   1.8805182951E+01   2.3082957950E+01
  7.4773734449E+00   2.3323926792E+01   4.1839528742E-01
  1.1478175565E+01   2.2627169354E+01   4.0680357490E+00
  1.5140749712E+01   2.2652332095E+01   7.3288068888E+00
  1.8875159541E+01   2.2923532528E+01   1.1103144245E+01
  2.3183903735E+01   2.2828305627E+01   1.4879809106E+01
  2.5963551112E+01   2.2955676633E+01   1.8696467441E+01
  3.0639956443E+01   2.2661956859E+01   2.3678375588E+01
  3.4696233211E+01   2.2991652613E+01   2.6664359487E+01
  4.0144872368E+00   2.6528310960E+01   3.7473373873E-01
  7.7103826086E+00   2.6950923510E+01   4.0944409043E+00
  1.1075701703E+01   2.7078558322E+01   7.5908144449E+00
  1.5244409076E+01   2.6824589473E+01   1.1223917259E+01
  1.8910445252E+01   2.6468119370E+01   1.5139080328E+01
  2.3575779030E+01   2.7306670560E+01   1.8877447747E+01
  2.6614958272E+01   2.6434063336E+01   2.3391077487E+01
  3.0523543978E+01   2.7128361042E+01   2.6907722084E+01
  3.4202418199E+01   2.6791076492E+01   3.0486472182E+01
  8.6280874182E-02   3.0325767529E+01   5.1162335048E-02
  3.6575562763E+00   3.0328617684E+01   3.4423028494E+00
  7.1042629290E+00   3.0697335294E+01   7.1412176032E+00
  1.1435904689E+01   3.0312360799E+01   1.1699896955E+01
  1.5260792810E+01   3.0322620270E+01   1.5423995117E+01
  1.9793228941E+01   3.0620507122E+01   1.8561658371E+01
  2.2725010016E+01   3.0515827331E+01   2.3220988310E+01
  2.6320714622E+01   3.0517393281E+01   2.6620277875E+01
  3.0614873699E+01   3.0898138081E+01   3.0439856558E+01
  3.4612223567E+01   3.0562807154E+01   3.5059380312E+01
  1.9381780011E-01   3.4614200326E+01   3.9547424995E+00
  4.0028174205E+00   3.4497456615E+01   7.7076227653E+00
  7.6574324139E+00   3.4447484312E+01   1.2228243233E+01
  1.1822690310E+01   3.4531862373E+01   1.5551562850E+01
  1.5655359614E+01   3.4038582038E+01   1.9237122115E+01
  1.9430742461E+01   3.4920202301E+01   2.2796545932E+01
  2.2365514032E+01   3.3836960706E+01   2.6816992985E+01
  2.7029240556E+01   3.4702603695E+01   3.0583537278E+01
  3.0595013952E+01   3.4562816548E+01   3.4558499450E+01
  3.5048748183E+01   3.7565755676E+00   3.3009561086E-01
  3.0200530961E+01   8.1770402504E+00   3.8143554300E+01
  3.4247485558E+01   7.5158044237E+00   3.6907479135E+00
  2.6512088138E+01   1.1507056348E+01   3.7934766122E+01
  3.0576148866E+01   1.1163602009E+01   3.6194617144E+00
  3.3944489341E+01   1.1686631132E+01   7.4848554848E+00
  2.3091421969E+01   1.4860883985E+01   3.8180456600E+01
  2.7351851398E+01   1.5173896680E+01   4.0889521726E+00
  3.0704795709E+01   1.5385110375E+01   7.9070482291E+00
  3.4596743025E+01   1.5436416819E+01   1.1497919275E+01
  1.9279225464E+01   1.9456996122E+01   4.1461010579E-01
  2.3414768885E+01   1.8957520185E+01   4.1906025128E+00
  2.6749515075E+01   1.9461473417E+01   8.2732248786E+00
  3.0809788751E+01   1.9018435866E+01   1.1155324013E+01
  3.4554829487E+01   1.9258442442E+01   1.4904515471E+01
  1.5137665684E+01   2.2760951270E+01   3.7898203633E+01
  1.8615097353E+01   2.2828477610E+01   3.9352080555E+00
  2.2629752929E+01   2.3209498335E+01   6.8693652897E+00
  2.6206073237E+01   2.3142671249E+01   1.0926780850E+01
  3.0317859386E+01   2.3093362338E+01   1.5030392329E+01
  3.4339519386E+01   2.2848422173E+01   1.9407661523E+01
  1.0991235853E+01   2.6976906436E+01   2.2444646259E-01
  1.5725562417E+01   2.6666055304E+01   3.4771708273E+00
  1.9024467405E+01   2.6634559552E+01   7.6252917528E+00
  2.3063388541E+01   2.6689335680E+01   1.1527616717E+01
  2.6596729498E+01   2.6488984641E+01   1.4905382682E+01
  3.0580104287E+01   2.6639155317E+01   1.9547109368E+01
  3.4228795835E+01   2.6513684306E+01   2.3423890278E+01
  7.4820871824E+00   3.0599005739E+01   4.4438987495E-01
  1.1662926981E+01   3.0730210933E+01   4.0146420680E+00
  1.5078647224E+01   3.1096413001E+01   7.7540662420E+00
  1.9732561433E+01   3.0079383211E+01   1.1566349152E+01
  2.2714140840E+01   3.0692256136E+01   1.5228895595E+01
  2.7109295118E+01   3.0499759668E+01   1.9090430447E+01
  3.0477345539E+01   3.0658689606E+01   2.3470533934E+01
  3.4350839341E+01   3.0252927011E+01   2.6624077467E+01
  3.4352435348E+00   3.4034837343E+01   2.7588969036E-01
  7.8542710329E+00   3.4256479703E+01   3.9260533478E+00
  1.0901140271E+01   3.4762925546E+01   8.0988814847E+00
  1.6125066826E+01   3.4137737606E+01   1.1405718775E+01
  1.9352901831E+01   3.4727453738E+01   1.5482563303E+01
  2.3152015111E+01   3.3912626825E+01   1.9276054878E+01
  2.7048855169E+01   3.3984676602E+01   2.2639928168E+01
  2.9984083911E+01   3.4311967613E+01   2.6893863958E+01
  3.4502778778E+01   3.4294760014E+01   3.0501164615E+01
  3.3993633248E+01   1.1457670309E+01   3.8074470970E+01
  3.0719028668E+01   1.5149274039E+01   2.1191260284E-01
  3.4600166522E+01   1.4556295149E+01   3.7079250578E+00
  2.7161708321E+01   1.8613709813E+01   3.8212929741E+01
  3.0313249899E+01   1.8732420485E+01   3.9732291609E+00
  3.4498934197E+01   1.8962450184E+01   7.4476545289E+00
  2.3288521935E+01   2.2962623123E+01   3.6388132541E-01
  2.6771357962E+01   2.3007678495E+01   3.3288623728E+00
  3.0178744481E+01   2.2808571715E+01   7.8774377193E+00
  3.3910533217E+01   2.2701925698E+01   1.0826334836E+01
  1.9015014871E+01   2.7199512758E+01   3.8241798305E+01
  2.3257826553E+01   2.7072920898E+01   4.2139214036E+00
  2.6342306209E+01   2.7135625209E+01   8.1845247757E+00
  3.0409306351E+01   2.7196204908E+01   1.1178775940E+01
  3.4579891306E+01   2.5983314295E+01   1.5493396490E+01
  1.5084473923E+01   3.0549679152E+01   1.8947454262E-01
  1.9441574511E+01   3.0551030600E+01   3.7119090398E+00
  2.2583135000E+01   3.0684566852E+01   7.1828155420E+00
  2.6805476018E+01   3.0874072437E+01   1.1378854967E+01
  3.0337681571E+01   3.0427496168E+01   1.5248978632E+01
  3.4440061088E+01   3.0505551347E+01   1.8876099469E+01
  1.1223484809E+01   3.4721230617E+01   2.1650206943E-02
  1.5126864845E+01   3.4442157967E+01   3.9502518615E+00
  1.9073577985E+01   3.4518163170E+01   7.3962606458E+00
  2.3333623118E+01   3.4143783444E+01   1.1540091006E+01
  2.6361704582E+01   3.4785257338E+01   1.5403212600E+01
  3.0700114189E+01   3.4384996478E+01   1.9047820105E+01
  3.4709492878E+01   3.4460303047E+01   2.2481082220E+01
  3.4261716419E+01   1.9129026821E+01   3.8199698617E+01
  3.0798725985E+01   2.3133761445E+01   3.7985189309E+01
  3.4270660950E+01   2.2859872416E+01   3.6419581765E+00
  2.6797021101E+01   2.6317178125E+01   3.7669447511E+01
  3.0845760981E+01   2.7341187254E+01   4.3799738821E+00
  3.4405889023E+01   2.6501569237E+01   7.6548348575E+00
  2.3032772768E+01   3.0414000367E+01   3.9101438170E-01
  2.7212666466E+01   3.0542522967E+01   3.8251337079E+00
  3.0457375436E+01   3.0568867606E+01   7.8205774279E+00
  3.4062999026E+01   3.0142577707E+01   1.2046909013E+01
  1.9125528948E+01   3.4459212974E+01   3.7935336833E+01
  2.2637449074E+01   3.4675877314E+01   4.1902139066E+00
  2.6827237257E+01   3.4962501585E+01   7.7482895875E+00
  3.1162786259E+01   3.4507588281E+01   1.1343789002E+01
  3.4216326827E+01   3.4338311038E+01   1.5170145189E+01
  3.4430231240E+01   2.6489603528E+01   3.8007974360E+01
  3.0438404417E+01   3.0657860750E+01   6.9051113065E-01
  3.4790388773E+01   3.1086208696E+01   3.7620829189E+00
  2.7329601921E+01   3.4063720801E+01   5.3493381531E-01
  3.0922732745E+01   3.4813323330E+01   4.2431366598E+00
  3.4729427838E+01   3.4594414492E+01   7.5691608049E+00
  3.4580780110E+01   3.4628692340E+01   4.9759512348E-01
:V(Bohr/atu):
 -1.0431543311E-04   5.3790211276E-04   2.9615742191E-04
  9.7737088208E-05  -7.3636531547E-05   1.0524653272E-04
  5.8214089061E-04  -2.1917189967E-04  -4.8862739935E-04
  1.7203494798E-04   4.0189495528E-04  -4.7287098847E-04
  2.2709878999E-04   3.0079098722E-05  -1.5958552708E-04
  6.6872201764E-05   3.6864561330E-04   6.8947210578E-05
 -2.7982462385E-04  -4.1471084706E-04   1.9396911423E-04
 -2.6299200278E-05   4.0321088078E-04   2.1951011031E-04
 -4.7820521118E-05  -3.4826106981E-04   2.4965763989E-04
 -4.5716363548E-04   2.3244176252E-05  -2.4429967192E-04
  6.4158418633E-05  -1.4681550815E-04  -2.0817982034E-04
 -2.6050225503E-04  -1.8334779731E-04   4.4874801498E-04
  4.3632439488E-04   1.3149991067E-04   1.3940788233E-04
 -1.3218693485E-04   2.9731075113E-04  -4.6991766996E-04
 -6.1270984402E-05   1.4170744871E-04   6.1984777697E-04
 -2.2737575756E-04  -6.8824019633E-04   2.3314417169E-04
 -8.0673515264E-05   1.7295361484E-04   3.3038528142E-04
 -2.9446715508E-04   2.5828490575E-04  -1.7545126907E-04
  3.3008960662E-04  -3.2051591903E-04   2.3555509038E-04
  1.2014546352E-04  -1.1483422455E-04  -1.8891344682E-04
 -3.7178422982E-04  -7.6090228731E-04  -5.5381776054E-05
 -1.6615655892E-04  -4.0757767305E-05  -1.8390295080E-04
  1.7424618104E-04  -2.1644780546E-04  -6.2190510260E-05
 -2.4557624405E-04  -4.0849727330E-04  -4.1102166378E-04
 -3.1003160957E-04   1.0670013810E-04   1.8226628011E-04