:MDSTEP: 20
:R(Bohr):
  3.8057950620E+01   3.5181669562E-02   3.0681237180E+01
  4.1031187250E+00   3.7904057189E+01   3.5071005721E+01
  3.8151892304E+01   3.3691312212E+00   3.4364158075E+01
  3.7974645305E+01   3.8051276452E+01   2.2828043544E+01
  3.6101412905E+00   2.7690908401E-01   2.6654592020E+01
  7.1464652594E+00   2.3179190094E-01   3.0293500646E+01
  1.0710421893E+01   3.8208820510E+01   3.4094888219E+01
  3.8059162993E+01   3.7250182313E+00   2.6813569279E+01
  3.8050661578E+00   3.7225528612E+00   3.0252473114E+01
  7.2816607116E+00   3.5474227421E+00   3.4324900394E+01
  3.8146893242E+01   7.6859486485E+00   3.0568671332E+01
  3.8944299905E+00   7.2390777712E+00   3.4709684022E+01
  2.3477138297E-02   1.1075559556E+01   3.4914803384E+01
  5.5482144400E-01   3.8199875021E+01   1.5094569597E+01
  3.0174487221E+00   4.2881961808E-01   1.8802188660E+01
  7.7113910095E+00   3.7636103091E+01   2.2638179505E+01
  1.1169514294E+01   3.1200775159E-01   2.6594949825E+01
  1.5147144751E+01   3.8031560867E+01   3.0174319164E+01
  1.8981797854E+01   3.7984356420E+01   3.4116135901E+01
  3.8118291878E+01   4.4187062759E+00   1.9010974472E+01
  3.9213047977E+00   3.5900698488E+00   2.2998864161E+01
  8.2566871807E+00   3.8191324068E+00   2.6730878292E+01
  1.1347419238E+01   4.2510263277E+00   3.0344727041E+01
  1.5347292224E+01   4.0938414512E+00   3.4558468386E+01
  1.7212742518E-01   7.9088943616E+00   2.2989514653E+01
  4.1423370882E+00   7.0902871842E+00   2.6220327182E+01
  7.1025844503E+00   7.3051324920E+00   3.0889912993E+01
  1.1133000493E+01   7.0039606084E+00   3.4967932313E+01
  3.7791951257E+01   1.1198765461E+01   2.7298303558E+01
  4.1164341500E+00   1.1691046809E+01   3.0984994865E+01
  7.4775527832E+00   1.2171652164E+01   3.4384238298E+01
  3.8161174258E+01   1.5179688004E+01   3.0241217774E+01
  4.1772822121E+00   1.5844570027E+01   3.3924625792E+01
  3.7890375189E+01   1.9038960410E+01   3.4185894931E+01
  3.8076526402E+01   4.3645260265E-01   7.8043791878E+00
  3.7890759104E+00   3.8127331705E+01   1.1124516305E+01
  7.8351664715E+00   2.6622653817E-01   1.5271638422E+01
  1.1878237586E+01   2.9340162114E-01   1.8979927976E+01
  1.4827254592E+01   3.7940140535E+01   2.2911620850E+01
  1.9100988228E+01   3.7875229870E+01   2.7055189213E+01
  2.3239204749E+01   1.2156232795E-01   3.0397248535E+01
  2.6928439058E+01   1.2820261199E-01   3.4362095173E+01
  3.8178807702E+01   3.6816626937E+00   1.1513057536E+01
  4.3829548421E+00   3.9633556557E+00   1.5726940564E+01
  7.5343865557E+00   3.3622319243E+00   1.9752459944E+01
  1.1250857189E+01   3.5621005443E+00   2.2919463606E+01
  1.5545061240E+01   3.9801960732E+00   2.7065454588E+01
  1.9043988844E+01   3.6710952963E+00   3.0881826887E+01
  2.3265845519E+01   4.1405758390E+00   3.4789960140E+01
  3.7767816235E+01   7.4616278096E+00   1.5225972567E+01
  3.5967033872E+00   7.5536048336E+00   1.8977743063E+01
  7.9356381434E+00   7.5265408287E+00   2.3291152806E+01
  1.1490609510E+01   8.1544059276E+00   2.6611410187E+01
  1.4902601129E+01   7.7360865785E+00   3.0293927880E+01
  1.9108781796E+01   7.3160650973E+00   3.4725171584E+01
  3.7877274291E+01   1.1125355470E+01   1.9225982664E+01
  4.0171994392E+00   1.1575093049E+01   2.3226158040E+01
  7.0376959484E+00   1.1479960326E+01   2.6995171245E+01
  1.1549141039E+01   1.1388525054E+01   3.0421733030E+01
  1.5828306647E+01   1.1104362792E+01   3.4359985842E+01
  3.7863609505E+01   1.5133628225E+01   2.3285067509E+01
  3.6344191560E+00   1.5440202778E+01   2.6808958690E+01
  7.7625385311E+00   1.5648316449E+01   3.0112348687E+01
  1.1516710543E+01   1.4566374165E+01   3.4481512088E+01
  3.8075708298E+01   1.9239753281E+01   2.6829160579E+01
  4.1257307850E+00   1.9606396946E+01   3.0607310821E+01
  7.9693679739E+00   1.8979594001E+01   3.4287696149E+01
  1.9827619534E-01   2.2884810705E+01   3.0480385445E+01
  4.2887987812E+00   2.3290663714E+01   3.4832122645E+01
  3.8013855612E+01   2.6392573038E+01   3.4616772392E+01
  3.8240539282E+01   3.7985703918E+01   3.7852861098E+01
  3.2275281310E+00   6.9058230853E-02   4.0311795715E+00
  7.5617449580E+00   9.7895337587E-02   7.1564373216E+00
  1.1687895746E+01   1.6198265085E-01   1.1546535780E+01
  1.5545873857E+01   3.8062234466E+01   1.5752443037E+01
  1.8648637198E+01   6.3469668887E-02   1.9315512541E+01
  2.3193802672E+01   3.8053980545E+01   2.3100229922E+01
  2.6782618534E+01   4.8558014901E-02   2.6610652717E+01
  3.1053765340E+01   1.3648260967E-03   3.0810520491E+01
  3.4416340041E+01   3.7951351419E+01   3.4734862684E+01
  3.8530061687E-01   4.2468613174E+00   3.6652135583E+00
  3.6789106630E+00   3.7600518026E+00   8.1287208122E+00
  8.0215876474E+00   3.8877645413E+00   1.1486414757E+01
  1.1454051041E+01   3.6129152549E+00   1.5185755851E+01
  1.5083059290E+01   3.9965116016E+00   1.9059537465E+01
  1.9010447594E+01   3.5803775940E+00   2.2843462918E+01
  2.2961342637E+01   3.8170749273E+00   2.6416585854E+01
  2.7307945138E+01   3.6344836206E+00   3.0114213397E+01
  3.0822005243E+01   3.6891456603E+00   3.4243196849E+01
  1.3704665183E-01   7.8765810207E+00   7.6143345442E+00
  3.4893817555E+00   7.6310416345E+00   1.1525062352E+01
  7.8467682583E+00   7.7166624017E+00   1.5630590670E+01
  1.1491531969E+01   7.8549109723E+00   1.8901231385E+01
  1.5473158538E+01   7.0807594717E+00   2.3075102160E+01
  1.9338914798E+01   7.1451136764E+00   2.6902391639E+01
  2.2744734462E+01   7.3388996335E+00   3.0833591260E+01
  2.7067576549E+01   7.1633967810E+00   3.4451181934E+01
  1.4014111340E-01   1.1495958465E+01   1.1778132650E+01
  3.7244315129E+00   1.1221593940E+01   1.5869380169E+01
  7.4442775912E+00   1.0915310860E+01   1.9152388923E+01
  1.1408855419E+01   1.1587443122E+01   2.2892968823E+01
  1.5582971169E+01   1.1562606060E+01   2.7130326796E+01
  1.9624813871E+01   1.1075299460E+01   3.0304996197E+01
  2.2378758988E+01   1.1073398234E+01   3.4236315194E+01
  2.3132776579E-01   1.5352283193E+01   1.5425838064E+01
  4.0240710181E+00   1.6014145319E+01   1.8559127361E+01
  7.3071991961E+00   1.5754951264E+01   2.3110851891E+01
  1.1970430177E+01   1.5637125449E+01   2.7303691805E+01
  1.5475149092E+01   1.5276120904E+01   3.1058970141E+01
  1.9635970083E+01   1.5952553634E+01   3.4759684382E+01
  3.7682274392E+01   1.9096285872E+01   1.8967745812E+01
  3.2372212577E+00   1.9154718391E+01   2.2789813567E+01
  8.0020329609E+00   1.9392539034E+01   2.6867198354E+01
  1.1774927794E+01   1.9073269600E+01   3.0681404114E+01
  1.4808441032E+01   1.8850420783E+01   3.4134931065E+01
  1.0762033565E-01   2.3423754364E+01   2.2944087273E+01
  3.9536894229E+00   2.2530143984E+01   2.6336936548E+01
  7.9333228127E+00   2.2945134026E+01   3.0534792760E+01
  1.1387667363E+01   2.2930028191E+01   3.4279436130E+01
  3.8231528668E+01   2.6762162043E+01   2.6689391708E+01
  3.1864025665E+00   2.6629238397E+01   3.0473843576E+01
  6.8615687480E+00   2.7365465167E+01   3.4146450470E+01
  3.7760616506E+01   3.0084720556E+01   3.1297063846E+01
  3.8442811319E+00   3.0806001676E+01   3.4689232823E+01
  3.8211291889E+01   3.4457018751E+01   3.4386726305E+01
  7.6623329794E+00   3.7956936866E+01   3.4918283150E-01
  1.1520778730E+01   3.8163517943E+01   4.0034800563E+00
  1.5590874920E+01   3.8070885346E-01   7.6018828321E+00
  1.8894322036E+01   9.4283065772E-02   1.1663450878E+01
  2.3001115673E+01   3.8147250214E+01   1.5267672937E+01
  2.7080009825E+01   3.7991897429E+01   1.8785382812E+01
  3.1284865016E+01   3.8239014673E+01   2.2960236845E+01
  3.4404132450E+01   2.2081644049E-01   2.6946493911E+01
  3.5173848678E+00   3.6197543375E+00   3.8071480219E+01
  7.9223786536E+00   4.0418223201E+00   3.9399532143E+00
  1.1476466109E+01   3.6289950944E+00   7.4910501628E+00
  1.5698385490E+01   3.8316511150E+00   1.2025430624E+01
  1.9248792455E+01   3.7297640878E+00   1.5488726983E+01
  2.3153515456E+01   3.4526682639E+00   1.9547310865E+01
  2.6657753966E+01   3.4757228893E+00   2.2951976766E+01
  3.0890105333E+01   3.5459086694E+00   2.6373043731E+01
  3.4229483214E+01   4.2799634653E+00   3.0700965381E+01
  3.7928149576E+01   7.3972953718E+00   8.7639996752E-02
  3.6521064404E+00   7.6254441193E+00   4.0067818240E+00
  7.1978290381E+00   7.9801831210E+00   7.9365182729E+00
  1.1447904674E+01   7.3679737282E+00   1.1827765798E+01
  1.5365318118E+01   7.1226342148E+00   1.5490750886E+01
  1.9289783729E+01   7.3751870413E+00   1.9183011542E+01
  2.2822786672E+01   7.8806862810E+00   2.3292357088E+01
  2.6469290570E+01   7.6087396348E+00   2.6548074473E+01
  3.0386833951E+01   7.5825271902E+00   3.0765641734E+01
  3.4759543207E+01   7.2491375844E+00   3.4712105177E+01
  3.0781475554E-01   1.1296582602E+01   4.1185851127E+00
  3.5365200241E+00   1.1255786237E+01   7.5812389825E+00
  7.4822994506E+00   1.2086555405E+01   1.1269812886E+01
  1.1762312986E+01   1.1165632057E+01   1.5122462675E+01
  1.4981040966E+01   1.1415408481E+01   1.8866307669E+01
  1.9259499486E+01   1.0998564431E+01   2.2996356034E+01
  2.3291301993E+01   1.1538967306E+01   2.6690689522E+01
  2.6970304612E+01   1.1211103006E+01   3.0657631143E+01
  3.0346860833E+01   1.1556933732E+01   3.3930124437E+01
  3.2614809585E-01   1.5574681474E+01   7.1669619832E+00
  3.6782084323E+00   1.5001407467E+01   1.1499264203E+01
  8.1281302094E+00   1.5523213484E+01   1.5286962435E+01
  1.1305070061E+01   1.4885111161E+01   1.8781556747E+01
  1.4716463885E+01   1.5492876328E+01   2.3086266885E+01
  1.8662396420E+01   1.5722070574E+01   2.6962840358E+01
  2.2828234419E+01   1.5116907129E+01   3.0617253514E+01
  2.6949958069E+01   1.5534728247E+01   3.4182286078E+01
  7.0000236477E-02   1.8903494020E+01   1.0940564123E+01
  3.5111384882E+00   1.9416839989E+01   1.5097042191E+01
  8.0238972731E+00   1.8988636582E+01   1.8973301981E+01
  1.1512249511E+01   1.9089019094E+01   2.2635777853E+01
  1.5367914659E+01   1.9346629192E+01   2.6033255879E+01
  1.9079250206E+01   1.9257067651E+01   3.0704188218E+01
  2.3192710719E+01   1.9546056541E+01   3.4649996865E+01
  3.8186722131E+01   2.2752943262E+01   1.5205480674E+01
  3.4300934438E+00   2.2648488674E+01   1.9145456283E+01
  7.3316334019E+00   2.3210733530E+01   2.2811611663E+01
  1.1217856226E+01   2.3350292430E+01   2.6928714745E+01
  1.5330333932E+01   2.3366196044E+01   3.0724355742E+01
  1.8914688310E+01   2.3012968625E+01   3.4473059388E+01
  1.9314211592E-01   2.6995467980E+01   1.8796032901E+01
  3.2965423199E+00   2.7127353166E+01   2.2970510980E+01
  7.5892343571E+00   2.6787255715E+01   2.7147759210E+01
  1.1795550174E+01   2.6878339382E+01   3.0299404477E+01
  1.4960475295E+01   2.6912402551E+01   3.5034381912E+01
  3.8063878350E+01   3.0804446264E+01   2.3416655625E+01
  3.7019403918E+00   3.0689320095E+01   2.6760189502E+01
  7.7186913139E+00   3.0766480753E+01   3.0817837544E+01
  1.1123272050E+01   3.0050028233E+01   3.4791340143E+01
  3.7689303071E+01   3.4805454116E+01   2.6596543997E+01
  3.8911959935E+00   3.4599025458E+01   3.0637512495E+01
  7.9629392441E+00   3.4134561326E+01   3.4144474945E+01
  1.5580990939E+01   3.8061554113E+01   1.9142038997E-01
  1.9202347761E+01   3.8204735661E+01   3.8602934003E+00
  2.2562853912E+01   3.9258548504E-02   7.5817660973E+00
  2.6440970191E+01   3.6824088714E-01   1.1263310051E+01
  3.1025237663E+01   3.8053822764E+01   1.5465029433E+01
  3.4908690535E+01   9.5929518308E-03   1.9193936501E+01
  1.2037341584E+01   3.3529609852E+00   2.0423842974E-01
  1.5347169876E+01   3.4129061946E+00   4.0256388141E+00
  1.9361340555E+01   3.7504816025E+00   7.9805616319E+00
  2.3213663315E+01   3.9125211205E+00   1.1489163812E+01
  2.6711981230E+01   3.5739100253E+00   1.5175837507E+01
  3.0162487161E+01   3.7496376980E+00   1.9103238597E+01
  3.4237205284E+01   4.1950475820E+00   2.2558615776E+01
  7.6530178604E+00   7.8103517593E+00   5.5037425075E-01
  1.2226896992E+01   7.4900353515E+00   3.5434752686E+00
  1.5698307586E+01   7.9502419392E+00   8.1919615868E+00
  1.9240895605E+01   7.4034465172E+00   1.1883538169E+01
  2.3202677990E+01   7.5883027113E+00   1.4792354102E+01
  2.6221434952E+01   7.3843475460E+00   1.8692898450E+01
  3.0328349999E+01   7.9335370044E+00   2.2643828421E+01
  3.4063449232E+01   7.8793581305E+00   2.6456147894E+01
  3.8402668916E+00   1.1594470055E+01   3.8026983189E+01
  6.9668371975E+00   1.1611733354E+01   4.0180117966E+00
  1.1729070730E+01   1.1089380178E+01   8.1962573222E+00
  1.5775257243E+01   1.1552918758E+01   1.1524111453E+01
  1.8957551614E+01   1.1256933727E+01   1.5015676425E+01
  2.2765915506E+01   1.1427552972E+01   1.9199789916E+01
  2.6536950068E+01   1.1587014291E+01   2.2662866953E+01
  3.0029911941E+01   1.1571178310E+01   2.6874438317E+01
  3.4857257877E+01   1.1553287565E+01   3.1187860422E+01
  6.6098830524E-03   1.4999215867E+01   3.7789003870E+01
  3.9235410392E+00   1.5320842327E+01   3.6743932225E+00
  7.7478003523E+00   1.5531217214E+01   7.5010686918E+00
  1.1762030010E+01   1.5170734663E+01   1.1703491727E+01
  1.5628329718E+01   1.5186060353E+01   1.5176159312E+01
  1.9111036770E+01   1.5468859066E+01   1.9116668374E+01
  2.3050348154E+01   1.5444661421E+01   2.2884488874E+01
  2.6595803287E+01   1.5094230478E+01   2.6912008059E+01
  3.1043132882E+01   1.5487246497E+01   3.0688563713E+01
  3.4413842156E+01   1.5162380625E+01   3.4821011651E+01
  1.8544107667E-01   1.9276106590E+01   3.4285068734E+00
  3.7120856804E+00   1.8937233958E+01   7.5765483079E+00
  7.6192437063E+00   1.9464892176E+01   1.1611114529E+01
  1.1343322913E+01   1.9425467568E+01   1.5339455253E+01
  1.5301984078E+01   1.9410394408E+01   1.8904147262E+01
  1.9398710365E+01   1.9163283843E+01   2.2680742238E+01
  2.2794593198E+01   1.9211780416E+01   2.6323482038E+01
  2.6986195801E+01   1.8836742597E+01   3.0249488785E+01
  3.0619624941E+01   1.9026176339E+01   3.4155470588E+01
  3.8134469449E+01   2.3307257980E+01   7.9383324310E+00
  3.7423936175E+00   2.2703565424E+01   1.1597165976E+01
  7.5956995093E+00   2.2989955173E+01   1.5313438117E+01
  1.1055542689E+01   2.3117462029E+01   1.9222775681E+01
  1.5221006310E+01   2.2993052263E+01   2.3133868407E+01
  1.9289935269E+01   2.3137621301E+01   2.6837354327E+01
  2.3411289294E+01   2.3145770067E+01   3.0633749139E+01
  2.6685005608E+01   2.2786982217E+01   3.4075782828E+01
  1.9952071932E-01   2.6230470406E+01   1.1857251211E+01
  3.9351164064E+00   2.7156938695E+01   1.4886195362E+01
  7.9052820746E+00   2.7339098205E+01   1.8945766601E+01
  1.1767412869E+01   2.7009307702E+01   2.2933478304E+01
  1.5507806871E+01   2.6894974047E+01   2.6694792008E+01
  1.9528677835E+01   2.6467166380E+01   3.0495834009E+01
  2.3009547062E+01   2.7066729686E+01   3.4121485243E+01
  3.7961272191E+01   3.0540123171E+01   1.5596651732E+01
  3.9484200746E+00   3.0367827878E+01   1.9036100344E+01
  7.7221913788E+00   3.0230957436E+01   2.3148158025E+01
  1.1779088888E+01   3.1160434311E+01   2.6803104079E+01
  1.5678879966E+01   3.0454788764E+01   3.0718219509E+01
  1.9269281227E+01   3.0508094830E+01   3.4396067493E+01
  2.6053950233E-01   3.4119274308E+01   1.8948036472E+01
  3.6171813891E+00   3.4107999918E+01   2.2908102151E+01
  8.0250915726E+00   3.4814102654E+01   2.6688844636E+01
  1.1292099681E+01   3.4403210280E+01   3.0478885388E+01
  1.5018607552E+01   3.4530143372E+01   3.4269053195E+01
  2.3161131611E+01   1.7495521514E-01   4.6901739617E-01
  2.6564837804E+01   3.1615364819E-01   3.6837297913E+00
  3.0790132479E+01   3.8164823975E+01   7.8831902235E+00
  3.4419367073E+01   5.6559186066E-01   1.1335975522E+01
  1.9135593765E+01   3.8593432112E+00   7.5108239936E-02
  2.3195992272E+01   4.0834034713E+00   3.9407887075E+00
  2.6919670236E+01   3.5296299894E+00   7.3860682298E+00
  3.0509411468E+01   3.9365198645E+00   1.1052098330E+01
  3.4494620075E+01   3.7200120837E+00   1.4939177002E+01
  1.4855691154E+01   7.7445060750E+00   3.7925644948E+01
  1.9191241585E+01   7.3659640715E+00   3.7573786947E+00
  2.2867797138E+01   7.7348736691E+00   8.1180632941E+00
  2.7292142556E+01   8.0885192725E+00   1.1367525708E+01
  3.0806345931E+01   7.5123613324E+00   1.5448082962E+01
  3.3965360753E+01   7.8493595122E+00   1.8813927995E+01
  1.1020836219E+01   1.1331605616E+01   4.6932352908E-02
  1.5324333153E+01   1.1385877276E+01   3.9489450582E+00
  1.9040503044E+01   1.1837044848E+01   7.2892725698E+00
  2.3308649561E+01   1.1708280880E+01   1.1189483538E+01
  2.7123767446E+01   1.1526065563E+01   1.5029048560E+01
  3.0849782800E+01   1.1888368634E+01   1.9322535751E+01
  3.4386067083E+01   1.1470507879E+01   2.3461319856E+01
  7.7614284320E+00   1.5265554274E+01   3.4344883341E-01
  1.1568855700E+01   1.5090368554E+01   3.5518554912E+00
  1.5324401467E+01   1.5323572177E+01   8.0235791403E+00
  1.9642408988E+01   1.5099800455E+01   1.1183679849E+01
  2.2478184266E+01   1.5529715210E+01   1.5329940549E+01
  2.6684899116E+01   1.5327688738E+01   1.9038362698E+01
  2.9987362233E+01   1.5508002617E+01   2.3286619747E+01
  3.4415722377E+01   1.5572748322E+01   2.6747459906E+01
  3.3972258533E+00   1.9560506888E+01   3.7745298938E+01
  7.7540671402E+00   1.9327278110E+01   3.6727275094E+00
  1.1887257256E+01   1.8752998178E+01   7.5464537889E+00
  1.5571463637E+01   1.9122795203E+01   1.1817798835E+01
  1.9326363666E+01   1.9451047718E+01   1.5323582510E+01
  2.3054653244E+01   1.8943556155E+01   1.8987409418E+01
  2.6713983670E+01   1.9574188836E+01   2.2613534523E+01
  3.0748767738E+01   1.9058249915E+01   2.6868997922E+01
  3.4420106911E+01   1.9222864507E+01   3.0846309274E+01
  4.2808728482E-02   2.2962984134E+01   8.6802748175E-02
  3.6159645050E+00   2.2680767779E+01   4.0774394005E+00
  8.1565668004E+00   2.2452887711E+01   7.7505642496E+00
  1.2054784878E+01   2.2533582895E+01   1.1077208305E+01
  1.5047809964E+01   2.3357640536E+01   1.5226377780E+01
  1.9125171613E+01   2.2835089545E+01   1.8852898387E+01
  2.2715475480E+01   2.2990525782E+01   2.2537995681E+01
  2.6866233242E+01   2.2626215546E+01   2.7121221961E+01
  3.1117127574E+01   2.2847513236E+01   3.0745890805E+01
  3.4212548259E+01   2.2492092848E+01   3.4549988368E+01
  3.8089775255E+01   2.7007819328E+01   3.8256306348E+00
  4.2651806461E+00   2.6830865413E+01   7.6720436547E+00
  7.5713094078E+00   2.6583132659E+01   1.1618718161E+01
  1.1640381791E+01   2.6464607482E+01   1.5642210562E+01
  1.5146705109E+01   2.6917780186E+01   1.9295117465E+01
  1.8843851848E+01   2.6556654807E+01   2.2521726663E+01
  2.2728974417E+01   2.6767231633E+01   2.6683420898E+01
  2.6590135697E+01   2.6705769797E+01   2.9859318602E+01
  3.0313234273E+01   2.6806580470E+01   3.4619266663E+01
  3.1219790649E-01   3.0092977988E+01   7.9135840989E+00
  3.9455509937E+00   3.0737579522E+01   1.1238906562E+01
  7.7582358234E+00   3.0652716020E+01   1.4913658167E+01
  1.1445789082E+01   3.0755462632E+01   1.9004193041E+01
  1.5321735473E+01   3.0697103372E+01   2.2638593285E+01
  1.8874492703E+01   3.0380792473E+01   2.6496828975E+01
  2.2968086340E+01   3.0447725461E+01   3.0700515564E+01
  2.6925225124E+01   3.0388615780E+01   3.4406677324E+01
  3.8016807890E+01   3.5001431031E+01   1.1716224430E+01
  3.8512989723E+00   3.3864116121E+01   1.5365873015E+01
  7.6993177170E+00   3.4466897492E+01   1.9172272423E+01
  1.1684193953E+01   3.4247725763E+01   2.2936637584E+01
  1.5562851812E+01   3.4231833699E+01   2.6999139473E+01
  1.9358766996E+01   3.3917959921E+01   3.1018189099E+01
  2.3382870062E+01   3.4514418744E+01   3.4662591479E+01
  3.0947881597E+01   3.8012000111E+01   1.0707965433E-01
  3.4803441616E+01   6.2003116953E-01   3.7948041621E+00
  2.6568002637E+01   3.7987500850E+00   8.1268446009E-02
  3.0874809080E+01   3.7107226530E+00   4.2707816747E+00
  3.4679404645E+01   3.9347147888E+00   7.8248508831E+00
  2.2986254982E+01   7.5800616773E+00   4.0982799936E-01
  2.7145312686E+01   7.5220086513E+00   3.3526882642E+00
  3.0237212495E+01   7.4757329429E+00   7.7303056565E+00
  3.4646719357E+01   7.6814541179E+00   1.1178509019E+01
  1.9077764639E+01   1.1445433844E+01   3.3497944930E-02
  2.2821499514E+01   1.1321200809E+01   3.7309539228E+00
  2.6590019102E+01   1.1218290174E+01   7.2534019806E+00
  3.0820559542E+01   1.1600653339E+01   1.1367033252E+01
  3.4458374413E+01   1.2211868350E+01   1.5613743296E+01
  1.5535309956E+01   1.5610477146E+01   2.5825196319E-01
  1.9026323114E+01   1.5370270936E+01   3.4751513582E+00
  2.2993290146E+01   1.5174158935E+01   7.3568553475E+00
  2.7002904080E+01   1.5624704136E+01   1.1451933013E+01
  3.0736541538E+01   1.5381348576E+01   1.5338328725E+01
  3.4189674674E+01   1.5283629390E+01   1.9511832639E+01
  1.2116033150E+01   1.9174470317E+01   3.8043780082E+01
  1.5369139310E+01   1.9437482088E+01   3.7236379291E+00
  1.9361937736E+01   1.9414099272E+01   7.9532673060E+00
  2.2801582116E+01   1.9171100986E+01   1.1667324634E+01
  2.7474889654E+01   1.9197437546E+01   1.5367474929E+01
  3.0469024392E+01   1.9676763557E+01   1.9486831548E+01
  3.4552753004E+01   1.8805183014E+01   2.3082828532E+01
  7.4771633398E+00   2.3323881681E+01   4.1856455361E-01
  1.1477853771E+01   2.2627082111E+01   4.0681783608E+00
  1.5140408148E+01   2.2652283997E+01   7.3288170767E+00
  1.8874942234E+01   2.2923453620E+01   1.1103049883E+01
  2.3183991668E+01   2.2828250698E+01   1.4879732729E+01
  2.5963805083E+01   2.2955647067E+01   1.8696459024E+01
  3.0640256234E+01   2.2661893434E+01   2.3678293230E+01
  3.4696459522E+01   2.2991605655E+01   2.6664324058E+01
  4.0144103048E+00   2.6528283580E+01   3.7489530003E-01
  7.7101415127E+00   2.6950872660E+01   4.0945347619E+00
  1.1075397371E+01   2.7078482695E+01   7.5908091633E+00
  1.5244066264E+01   2.6824511708E+01   1.1223790899E+01
  1.8910266141E+01   2.6468068106E+01   1.5138980418E+01
  2.3575888319E+01   2.7306624634E+01   1.8877454322E+01
  2.6615180691E+01   2.6433995723E+01   2.3391061143E+01
  3.0523817895E+01   2.7128290138E+01   2.6907734646E+01
  3.4202672946E+01   2.6791077370E+01   3.0486572487E+01
  8.6362978763E-02   3.0325816727E+01   5.1258703520E-02
  3.6574884988E+00   3.0328609166E+01   3.4423829348E+00
  7.1040517090E+00   3.0697247747E+01   7.1411691701E+00
  1.1435604951E+01   3.0312259787E+01   1.1699754010E+01
  1.5260523176E+01   3.0322584609E+01   1.5423858738E+01
  1.9793139825E+01   3.0620475651E+01   1.8561586277E+01
  2.2725088808E+01   3.0515777300E+01   2.3220963694E+01
  2.6320971077E+01   3.0517361370E+01   2.6620298523E+01
  3.0615145476E+01   3.0898137587E+01   3.0439940702E+01
  3.4612442568E+01   3.0562842675E+01   3.5059471225E+01
  1.9389931983E-01   3.4614204853E+01   3.9547384395E+00
  4.0027049552E+00   3.4497428734E+01   7.7075484457E+00
  7.6572351568E+00   3.4447453708E+01   1.2228158004E+01
  1.1822408215E+01   3.4531882937E+01   1.5551510905E+01
  1.5655112983E+01   3.4038608997E+01   1.9237066374E+01
  1.9430639602E+01   3.4920204307E+01   2.2796513935E+01
  2.2365593615E+01   3.3836976708E+01   2.6817052611E+01
  2.7029459111E+01   3.4702658477E+01   3.0583653981E+01
  3.0595282795E+01   3.4562878928E+01   3.4558602416E+01
  3.5048951826E+01   3.7565894592E+00   3.3013315614E-01
  3.0200828927E+01   8.1770300872E+00   3.8143623977E+01
  3.4247694904E+01   7.5158254167E+00   3.6907591281E+00
  2.6512291302E+01   1.1507029176E+01   3.7934815849E+01
  3.0576431879E+01   1.1163521993E+01   3.6194883757E+00
  3.3944797839E+01   1.1686592758E+01   7.4848958916E+00
  2.3091424585E+01   1.4860830519E+01   3.8180480761E+01
  2.7352053798E+01   1.5173833512E+01   4.0889815537E+00
  3.0705151390E+01   1.5385064683E+01   7.9070610480E+00
  3.4597087798E+01   1.5436423814E+01   1.1497864693E+01
  1.9279076648E+01   1.9456943164E+01   4.1463876751E-01
  2.3414839653E+01   1.8957505763E+01   4.1906121853E+00
  2.6749730177E+01   1.9461405565E+01   8.2731658731E+00
  3.0810149630E+01   1.9018316314E+01   1.1155276496E+01
  3.4555163043E+01   1.9258374898E+01   1.4904473945E+01
  1.5137421699E+01   2.2760871690E+01   3.7898256321E+01
  1.8614921078E+01   2.2828397474E+01   3.9352779933E+00
  2.2629729811E+01   2.3209386623E+01   6.8693028976E+00
  2.6206244265E+01   2.3142574141E+01   1.0926742888E+01
  3.0318192825E+01   2.3093274128E+01   1.5030405325E+01
  3.4339781067E+01   2.2848322450E+01   1.9407604702E+01
  1.0990941667E+01   2.6976873729E+01   2.2457830603E-01
  1.5725291525E+01   2.6665986526E+01   3.4772266567E+00
  1.9024293897E+01   2.6634530245E+01   7.6252666358E+00
  2.3063425253E+01   2.6689294920E+01   1.1527544883E+01
  2.6596962462E+01   2.6488916867E+01   1.4905366829E+01
  3.0580400128E+01   2.6639035789E+01   1.9547056579E+01
  3.4229024412E+01   2.6513594363E+01   2.3423843095E+01
  7.4818656669E+00   3.0598963224E+01   4.4454715034E-01
  1.1662592891E+01   3.0730161794E+01   4.0147409827E+00
  1.5078319920E+01   3.1096358275E+01   7.7540853054E+00
  1.9732425914E+01   3.0079372750E+01   1.1566313391E+01
  2.2714212333E+01   3.0692297371E+01   1.5228819732E+01
  2.7109531296E+01   3.0499756606E+01   1.9090417605E+01
  3.0477632491E+01   3.0658683132E+01   2.3470518317E+01
  3.4351022984E+01   3.0252903174E+01   2.6624159304E+01
  3.4351294556E+00   3.4034838513E+01   2.7593408401E-01
  7.8540144079E+00   3.4256422541E+01   3.9260685334E+00
  1.0900879697E+01   3.4762847047E+01   8.0988383122E+00
  1.6124837740E+01   3.4137721803E+01   1.1405630238E+01
  1.9352822306E+01   3.4727477531E+01   1.5482463576E+01
  2.3152113619E+01   3.3912654541E+01   1.9275996498E+01
  2.7049100918E+01   3.3984677917E+01   2.2639921023E+01
  2.9984348534E+01   3.4311955021E+01   2.6893952358E+01
  3.4503040646E+01   3.4294785804E+01   3.0501316726E+01
  3.3993859851E+01   1.1457611648E+01   3.8074527579E+01
  3.0719304129E+01   1.5149229153E+01   2.1198200829E-01
  3.4600456963E+01   1.4556245222E+01   3.7079859700E+00
  2.7161872219E+01   1.8613639077E+01   3.8212964935E+01
  3.0313546444E+01   1.8732380439E+01   3.9732772198E+00
  3.4499226960E+01   1.8962361740E+01   7.4476807289E+00
  2.3288596462E+01   2.2962544236E+01   3.6392719370E-01
  2.6771539095E+01   2.3007626974E+01   3.3288361162E+00
  3.0179060092E+01   2.2808497188E+01   7.8773963734E+00
  3.3910905347E+01   2.2701862712E+01   1.0826292032E+01
  1.9014881048E+01   2.7199474736E+01   3.8241843471E+01
  2.3257866278E+01   2.7072915528E+01   4.2139124572E+00
  2.6342522027E+01   2.7135592362E+01   8.1844641633E+00
  3.0409662803E+01   2.7196196142E+01   1.1178735887E+01
  3.4580176325E+01   2.5983221551E+01   1.5493348412E+01
  1.5084226566E+01   3.0549609397E+01   1.8960349831E-01
  1.9441456690E+01   3.0550957504E+01   3.7119333613E+00
  2.2583157720E+01   3.0684543862E+01   7.1827947771E+00
  2.6805730808E+01   3.0874152191E+01   1.1378795787E+01
  3.0338013136E+01   3.0427504970E+01   1.5248959239E+01
  3.4440264830E+01   3.0505491574E+01   1.8875987434E+01
  1.1223181845E+01   3.4721231107E+01   2.1746423255E-02
  1.5126555564E+01   3.4442151261E+01   3.9503427817E+00
  1.9073434680E+01   3.4518201491E+01   7.3962887107E+00
  2.3333740444E+01   3.4143809461E+01   1.1540034313E+01
  2.6361948796E+01   3.4785312012E+01   1.5403140563E+01
  3.0700355318E+01   3.4384997976E+01   1.9047714491E+01
  3.4709721244E+01   3.4460353788E+01   2.2481026863E+01
  3.4262013203E+01   1.9128987690E+01   3.8199807991E+01
  3.0799004505E+01   2.3133784652E+01   3.7985228124E+01
  3.4270950550E+01   2.2859826080E+01   3.6420297484E+00
  2.6797272759E+01   2.6317138482E+01   3.7669437780E+01
  3.0846097067E+01   2.7341163587E+01   4.3799269088E+00
  3.4406252153E+01   2.6501501458E+01   7.6548340062E+00
  2.3032846360E+01   3.0413981539E+01   3.9106682391E-01
  2.7212923524E+01   3.0542528709E+01   3.8251460033E+00
  3.0457706802E+01   3.0568914559E+01   7.8205399659E+00
  3.4063287400E+01   3.0142557475E+01   1.2046870707E+01
  1.9125424676E+01   3.4459230941E+01   3.7935421143E+01
  2.2637523722E+01   3.4675935867E+01   4.1902467196E+00
  2.6827512439E+01   3.4962606047E+01   7.7482933923E+00
  3.1163115808E+01   3.4507661378E+01   1.1343721193E+01
  3.4216585658E+01   3.4338333746E+01   1.5170036957E+01
  3.4430460006E+01   2.6489606963E+01   3.8008060009E+01
  3.0438711668E+01   3.0657869540E+01   6.9055305761E-01
  3.4790664086E+01   3.1086256225E+01   3.7621276602E+00
  2.7329901272E+01   3.4063769598E+01   5.3497024007E-01
  3.0923098369E+01   3.4813433397E+01   4.2430946020E+00
  3.4729715586E+01   3.4594470954E+01   7.5691256298E+00
  3.4580995704E+01   3.4628777285E+01   4.9769265444E-01
:V(Bohr/atu):
 -1.0412772230E-04   5.3735101132E-04   2.9655316142E-04
  9.7384376625E-05  -7.4351090745E-05   1.0535311694E-04
  5.8214975102E-04  -2.1968199391E-04  -4.8833100115E-04
  1.7215178788E-04   4.0141411358E-04  -4.7268067743E-04
  2.2708632174E-04   2.9510389660E-05  -1.5930128067E-04
  6.6538044895E-05   3.6800422795E-04   6.9128287398E-05
 -2.8020009152E-04  -4.1528576271E-04   1.9417295993E-04
 -2.6171242395E-05   4.0284045757E-04   2.1975439406E-04
 -4.7951387073E-05  -3.4872306817E-04   2.4988879880E-04
 -4.5748638965E-04   2.2769660222E-05  -2.4424008593E-04
  6.4307175871E-05  -1.4708204101E-04  -2.0775306444E-04
 -2.6073259880E-04  -1.8352440995E-04   4.4888696459E-04
  4.3637530125E-04   1.3149558674E-04   1.3960727457E-04
 -1.3209847812E-04   2.9683953316E-04  -4.7020763104E-04
 -6.1249072907E-05   1.4124141329E-04   6.1959683573E-04
 -2.2745590726E-04  -6.8874529360E-04   2.3322622565E-04
 -8.1023713952E-05   1.7243938469E-04   3.3031537984E-04
 -2.9473168358E-04   2.5764538766E-04  -1.7515110759E-04
  3.2999966386E-04  -3.2124708314E-04   2.3579392404E-04
  1.2033063096E-04  -1.1510555190E-04  -1.8912550517E-04
 -3.7180306627E-04  -7.6137950409E-04  -5.5288855103E-05
 -1.6645432406E-04  -4.1183446976E-05  -1.8386305411E-04
  1.7385457256E-04  -2.1685912608E-04  -6.2077192182E-05
 -2.4575260470E-04  -4.0899172221E-04  -4.1091791583E-04
 -3.1005182088E-04   1.0642656691E-04   1.8232166503E-04