:MDSTEP: 20
:R(Bohr):
  5.3412392929E+01   1.4856307482E-02   4.6419300095E+01
  3.9989530506E+00   5.3075664057E+01   5.0247064977E+01
  5.3479399206E+01   3.1886669683E+00   4.9680098367E+01
  5.3135845799E+01   3.9522191964E-01   3.8230341166E+01
  3.6633639141E+00   5.3480929475E+01   4.1598970274E+01
  7.1082621372E+00   3.5667227277E-01   4.5643132202E+01
  1.0688683441E+01   5.3346341675E+01   4.9982741086E+01
  5.3451675803E+01   4.0171398037E+00   4.2670620924E+01
  3.7698098696E+00   3.5080772692E+00   4.6124584859E+01
  7.3206922192E+00   3.7645136583E+00   4.9155097044E+01
  5.3487287936E+01   7.4304788167E+00   4.6115325111E+01
  3.9655230307E+00   7.6415811235E+00   5.0272466908E+01
  5.3512686504E+01   1.1716173780E+01   4.9534570017E+01
  6.5302890642E-01   5.3435734418E+01   3.0229567824E+01
  3.0217523316E+00   3.5299169518E-01   3.4089770940E+01
  7.7796131035E+00   5.2961636041E+01   3.8401456600E+01
  1.1190378458E+01   5.3423717127E+01   4.2401047666E+01
  1.5088885597E+01   3.0494943645E-01   4.5731101986E+01
  1.8948926801E+01   5.3378451881E+01   4.9683286798E+01
  5.3515354018E+01   3.9472766018E+00   3.4113704281E+01
  3.9836625866E+00   3.5795501423E+00   3.8111337993E+01
  8.2767739257E+00   3.6409620229E+00   4.2221995688E+01
  1.1395418115E+01   3.7157763210E+00   4.5936593553E+01
  1.5387828668E+01   4.3319074218E+00   4.9663075724E+01
  1.2593114873E-01   8.2724948072E+00   3.8284867847E+01
  4.1394297461E+00   7.4025703832E+00   4.1447957523E+01
  7.1198347534E+00   7.8958318997E+00   4.5725722347E+01
  1.1178329757E+01   7.6425567571E+00   4.9825581847E+01
  5.3065288429E+01   1.1346602750E+01   4.2545810367E+01
  4.1216127435E+00   1.1841267151E+01   4.6021549612E+01
  7.4416483233E+00   1.1938717145E+01   4.9718875112E+01
  5.3255786807E+01   1.5336658103E+01   4.5479412519E+01
  4.1623578956E+00   1.5507011873E+01   4.9325722362E+01
  5.3261825603E+01   1.9206031718E+01   4.9392709557E+01
  5.3385979124E+01   4.1463539214E-01   2.2731914528E+01
  3.7969090716E+00   5.3266762079E+01   2.6441311528E+01
  7.8447723354E+00   5.3340867652E+01   3.0695990383E+01
  1.1959470108E+01   5.3543733179E+01   3.4084069161E+01
  1.4626806837E+01   9.5900147094E-02   3.7843086573E+01
  1.9113193075E+01   5.3326462775E+01   4.2169098666E+01
  2.3334061830E+01   1.9045834411E-01   4.6331989062E+01
  2.7033644187E+01   2.6176510653E-01   4.9926580687E+01
  5.3423554812E+01   3.3083849165E+00   2.6719849099E+01
  4.2456485477E+00   4.2662254270E+00   3.0412073959E+01
  7.5003505427E+00   3.9502549530E+00   3.4514787738E+01
  1.1256274086E+01   4.1027555079E+00   3.8430393387E+01
  1.5660614333E+01   3.4499499557E+00   4.1770299072E+01
  1.9045173733E+01   3.5943082553E+00   4.6351745928E+01
  2.3235017247E+01   3.5777348175E+00   4.9624388493E+01
  5.3268233143E+01   7.4603614735E+00   3.0312386772E+01
  3.5343264684E+00   7.3962972873E+00   3.4528143169E+01
  7.7600636401E+00   7.3688343896E+00   3.8374337251E+01
  1.1560717301E+01   7.7893686279E+00   4.1675363447E+01
  1.4963699454E+01   7.8677682542E+00   4.5810004822E+01
  1.9092365923E+01   7.5557014925E+00   5.0146838319E+01
  5.3299254398E+01   1.1059300577E+01   3.4123797041E+01
  4.0488075337E+00   1.1624808034E+01   3.8068679549E+01
  7.0512349471E+00   1.1549023744E+01   4.2054630469E+01
  1.1482282006E+01   1.0953356642E+01   4.6124010949E+01
  1.5855297127E+01   1.1658786613E+01   4.9335002749E+01
  5.3123946767E+01   1.5894060609E+01   3.8315692189E+01
  3.7153182520E+00   1.5556146921E+01   4.2421884172E+01
  7.7676600889E+00   1.5705689475E+01   4.5389905086E+01
  1.1489117655E+01   1.4806615616E+01   4.9132706747E+01
  5.3371493950E+01   1.9164881178E+01   4.2251660548E+01
  4.1431622293E+00   1.9145329731E+01   4.5642810212E+01
  7.9098146124E+00   1.8768083490E+01   4.9601204298E+01
  2.5341005815E-01   2.3008894322E+01   4.6124641432E+01
  4.2130114223E+00   2.2836718570E+01   4.9705338684E+01
  5.3365646683E+01   2.7215210106E+01   4.9617839303E+01
  5.3475223054E+01   1.1005398980E-01   1.5082895122E+01
  3.4210406988E+00   5.3516873603E+01   1.8910690764E+01
  7.5633345327E+00   5.3156479924E+01   2.2438936063E+01
  1.1444239675E+01   3.3986255225E-01   2.6971863019E+01
  1.5615326657E+01   5.3335362179E+01   3.0590250347E+01
  1.8614997380E+01   5.3279849403E+01   3.4638022084E+01
  2.3130295387E+01   5.3395036848E+01   3.8644274006E+01
  2.6748841377E+01   5.3284351757E+01   4.2333217568E+01
  3.1056297066E+01   5.3337330115E+01   4.5760091207E+01
  3.4395328067E+01   5.3083161095E+01   4.9504880585E+01
  3.1654554203E-01   3.8972348077E+00   1.8591589324E+01
  3.7417576899E+00   3.6607825480E+00   2.3514088648E+01
  8.1867115155E+00   3.8641309453E+00   2.6978767513E+01
  1.1492724265E+01   3.7495608548E+00   3.0843237879E+01
  1.5096219142E+01   4.0404825009E+00   3.4230030691E+01
  1.8875839081E+01   3.4582685369E+00   3.7881826705E+01
  2.2981662698E+01   3.6808118424E+00   4.1949339945E+01
  2.7326541878E+01   3.3828044524E+00   4.5598852004E+01
  3.0816711693E+01   3.8707570118E+00   4.9559216135E+01
  7.3094241034E-02   8.0741582812E+00   2.2408230516E+01
  3.5273663597E+00   8.1484672337E+00   2.6324169231E+01
  7.9631414710E+00   7.4170034319E+00   3.0577915007E+01
  1.1382693511E+01   7.5791614571E+00   3.4233955941E+01
  1.5550572499E+01   7.0806870642E+00   3.8313332330E+01
  1.9191561459E+01   6.9237899505E+00   4.2532929750E+01
  2.2767520197E+01   7.2562717502E+00   4.5801814602E+01
  2.6997676096E+01   7.4547415616E+00   5.0006134088E+01
  3.7364754370E-02   1.1318743616E+01   2.7010766987E+01
  3.7607984403E+00   1.1384751342E+01   3.0907273595E+01
  7.5190109826E+00   1.1223223841E+01   3.4280053968E+01
  1.1433744231E+01   1.1343967900E+01   3.8742932379E+01
  1.5559409388E+01   1.1167101323E+01   4.2416960803E+01
  1.9732524775E+01   1.1486295075E+01   4.5677967228E+01
  2.2432221640E+01   1.1226540466E+01   5.0132292081E+01
  1.8871573322E-01   1.5673547918E+01   3.0015424178E+01
  3.8909249611E+00   1.5576729401E+01   3.3865579296E+01
  7.2486374678E+00   1.5676576208E+01   3.8222108303E+01
  1.2027689230E+01   1.5413363821E+01   4.2715041303E+01
  1.5519631952E+01   1.5397435294E+01   4.5917718377E+01
  1.9587980932E+01   1.5303575381E+01   4.9426471151E+01
  5.3145723874E+01   1.9411401081E+01   3.4489574045E+01
  3.2630328851E+00   1.9238672468E+01   3.7928026682E+01
  7.9843938545E+00   1.9637709417E+01   4.1971401187E+01
  1.1820860687E+01   1.8893519042E+01   4.6458464222E+01
  1.4806281151E+01   1.9543869806E+01   5.0195903832E+01
  1.6773399823E-01   2.3459599700E+01   3.8041075506E+01
  3.9705811823E+00   2.2663155807E+01   4.2205784500E+01
  8.0725896478E+00   2.2969295531E+01   4.6169489494E+01
  1.1410665106E+01   2.3084782663E+01   4.9806277486E+01
  5.3504839492E+01   2.6530156462E+01   4.2069027493E+01
  3.2166709268E+00   2.6910078518E+01   4.5903736755E+01
  7.0767592542E+00   2.6896559006E+01   5.0028483454E+01
  5.3101625869E+01   3.0868234234E+01   4.6227320868E+01
  3.8766506457E+00   3.0702380499E+01   4.9954992784E+01
  5.3517358451E+01   3.4687267469E+01   4.9971435788E+01
  1.0050068008E-01   9.1383406410E-02   7.3958391665E+00
  3.7702243647E+00   5.3469769121E+01   1.1240644072E+01
  7.8510134207E+00   4.3155638712E-01   1.5378276471E+01
  1.1298289529E+01   5.3224329685E+01   1.9086251569E+01
  1.5360797958E+01   5.3466775952E+01   2.2968510019E+01
  1.9469154067E+01   1.0767636727E-01   2.6711702736E+01
  2.3564585205E+01   5.3385093188E+01   3.0969768414E+01
  2.6860063103E+01   5.2975314120E+01   3.4570369326E+01
  3.0169353649E+01   5.3328556342E+01   3.8283051789E+01
  3.4761945807E+01   5.3478118060E+01   4.1950064684E+01
  3.8198896147E+01   4.7754203566E-01   4.6069038222E+01
  4.2492040035E+01   5.3158227297E+01   5.0345419340E+01
  3.9227352999E-02   3.8614180170E+00   1.1360377350E+01
  4.0731082596E+00   3.4703667823E+00   1.5251914592E+01
  7.4469178945E+00   3.8838272686E+00   1.9161703407E+01
  1.1722097459E+01   4.2886293286E+00   2.2892716028E+01
  1.5176872624E+01   3.6763322053E+00   2.6920440666E+01
  1.8720792677E+01   3.7312327328E+00   3.0787830330E+01
  2.2803537179E+01   3.4469063883E+00   3.4721687347E+01
  2.6354901840E+01   3.7571690134E+00   3.8463757253E+01
  3.0571017614E+01   3.4517064376E+00   4.1886816206E+01
  3.4471382555E+01   3.8433248830E+00   4.5903317353E+01
  3.8432672203E+01   4.2346205117E+00   4.9372140126E+01
  5.3445489637E+01   7.6659801416E+00   1.5186895748E+01
  3.5475933890E+00   7.9797142541E+00   1.9305705560E+01
  7.2645409776E+00   7.8174337405E+00   2.2939827750E+01
  1.1987529544E+01   7.5680622254E+00   2.7119097518E+01
  1.5608477358E+01   7.3409229241E+00   3.0549854970E+01
  1.8825129077E+01   7.7787801691E+00   3.4313798168E+01
  2.2703459561E+01   7.5809279581E+00   3.8156849125E+01
  2.7048188701E+01   7.2128994309E+00   4.1644185045E+01
  3.0181998872E+01   7.3195394042E+00   4.5718618204E+01
  3.4521620905E+01   7.1648494559E+00   4.9736387114E+01
  8.4566993777E-02   1.1609384363E+01   1.8659214182E+01
  4.0748983321E+00   1.1721296870E+01   2.2537177028E+01
  7.3997530597E+00   1.1338939884E+01   2.6340067690E+01
  1.1704983501E+01   1.1730452464E+01   3.0740320531E+01
  1.5170546591E+01   1.1084356709E+01   3.4976248609E+01
  1.9609417732E+01   1.1390694229E+01   3.8179432883E+01
  2.2834309748E+01   1.1013767808E+01   4.1624530816E+01
  2.5986234532E+01   1.1188753456E+01   4.5854382415E+01
  3.0165284902E+01   1.1410905383E+01   4.9526378433E+01
  5.3512244434E+01   1.5663254162E+01   2.2315085835E+01
  4.0963969963E+00   1.4854121129E+01   2.6726907176E+01
  7.6590458904E+00   1.5634714415E+01   3.0770032229E+01
  1.1245841176E+01   1.5195234594E+01   3.4309301763E+01
  1.5719023632E+01   1.4649848014E+01   3.8001710922E+01
  1.9213088498E+01   1.5332994950E+01   4.2123163047E+01
  2.3085959015E+01   1.5569569040E+01   4.5817360282E+01
  2.6670943553E+01   1.5502002818E+01   4.9884503429E+01
  3.8254561962E-01   1.9127293212E+01   2.6759588420E+01
  3.8463249149E+00   1.8849518019E+01   3.0549116163E+01
  7.2366213316E+00   1.9416118339E+01   3.4418755713E+01
  1.1133579014E+01   1.9132299551E+01   3.7981328124E+01
  1.4945238775E+01   1.9448311264E+01   4.1817960385E+01
  1.9037533249E+01   1.9482242068E+01   4.6174834900E+01
  2.2803145475E+01   1.9267711836E+01   4.9830489617E+01
  2.1014038362E-01   2.3341894702E+01   3.0290350473E+01
  3.2733253884E+00   2.3015453240E+01   3.4180743138E+01
  7.5163182805E+00   2.3101783469E+01   3.7797863599E+01
  1.1749438305E+01   2.2856958902E+01   4.1807861155E+01
  1.4959814347E+01   2.3159466099E+01   4.6035448894E+01
  1.8970290362E+01   2.3228754598E+01   5.0031139034E+01
  5.3382096632E+01   2.7002935255E+01   3.4551918786E+01
  3.8826114922E+00   2.7092510170E+01   3.8110960884E+01
  7.3526967520E+00   2.6546297254E+01   4.1838252593E+01
  1.0885700321E+01   2.7157551638E+01   4.6210239366E+01
  1.5366243310E+01   2.6555222235E+01   4.9368053811E+01
  2.8166776607E-01   3.0239674055E+01   3.8206689153E+01
  4.1065051746E+00   3.1078426914E+01   4.2471263741E+01
  7.7819864064E+00   3.0855163964E+01   4.5958943701E+01
  1.1098237444E+01   3.0495600528E+01   4.9693408608E+01
  5.3225255050E+01   3.4620617269E+01   4.1711454655E+01
  4.3112502787E+00   3.4588141031E+01   4.6058537090E+01
  7.9781997820E+00   3.4331365973E+01   4.9643168044E+01
  4.1597894032E-01   3.7820793888E+01   4.5517979076E+01
  3.8428645139E+00   3.8059515031E+01   5.0079874893E+01
  2.1838650178E-01   4.1626444739E+01   4.9534156841E+01
  2.2010701838E-01   3.0164121376E-01   1.1201364345E-01
  3.8035216448E+00   5.3358531447E+01   4.2031472773E+00
  7.3246894396E+00   7.1495047626E-02   8.0147320224E+00
  1.1317557932E+01   5.3260015447E+01   1.1378302406E+01
  1.5354123761E+01   5.3450264364E+01   1.5251073841E+01
  1.9626438132E+01   1.4345984348E-01   1.8680593339E+01
  2.3299467342E+01   1.1101189660E-01   2.2770684563E+01
  2.6776952337E+01   5.3122626415E+01   2.6934013379E+01
  3.0900421635E+01   5.3335248330E+01   3.0552906714E+01
  3.3921012814E+01   5.3452818313E+01   3.4561435700E+01
  3.7974549457E+01   5.3427897859E+01   3.7834209671E+01
  4.1780518524E+01   3.5261638031E-01   4.1595892296E+01
  4.5975088663E+01   4.0723128719E-01   4.5349068552E+01
  4.8997814217E+01   7.8594574431E-02   4.9874119396E+01
  2.4830737154E-01   3.8021885909E+00   4.1285717326E+00
  4.3348672245E+00   3.7968027832E+00   7.4741811600E+00
  7.3327540144E+00   4.2573458372E+00   1.1159609482E+01
  1.1494384886E+01   3.7211321366E+00   1.5614122448E+01
  1.5087305609E+01   3.4396862852E+00   1.8686128415E+01
  1.8546494904E+01   3.9471809078E+00   2.3123352951E+01
  2.3482932083E+01   3.7190018615E+00   2.7246250418E+01
  2.6809434000E+01   3.7940398119E+00   3.0336263319E+01
  3.0681308164E+01   3.5673176273E+00   3.4426324221E+01
  3.4492128585E+01   3.9248279579E+00   3.8243025010E+01
  3.8484989046E+01   4.2953342563E+00   4.2229281452E+01
  4.2281674779E+01   3.1342757314E+00   4.6536731758E+01
  4.5874604980E+01   3.9684251561E+00   4.9819347821E+01
  7.0113532462E-02   7.9450586650E+00   7.8033588754E+00
  3.5102017606E+00   7.8899215285E+00   1.1111592057E+01
  7.9760929609E+00   7.4204101957E+00   1.5394425213E+01
  1.1503630312E+01   7.9919302413E+00   1.9031821541E+01
  1.5534272282E+01   7.5998225220E+00   2.2667837479E+01
  1.8914798553E+01   7.7332341197E+00   2.6901241639E+01
  2.2673427210E+01   7.3933853567E+00   3.0557526635E+01
  2.6581366514E+01   7.4424196290E+00   3.4241492021E+01
  3.0716997138E+01   8.0090236319E+00   3.8056324420E+01
  3.4697358706E+01   8.0394367943E+00   4.1656582469E+01
  3.8079774162E+01   7.4219918111E+00   4.5591030815E+01
  4.2391547057E+01   7.4818791117E+00   4.9546135660E+01
  8.1918210270E-02   1.1698238084E+01   1.1457151325E+01
  3.7962613830E+00   1.1079627101E+01   1.5464144912E+01
  7.7380144717E+00   1.1339414362E+01   1.9387038386E+01
  1.1526046723E+01   1.1033087755E+01   2.2807256179E+01
  1.4952616745E+01   1.1412486055E+01   2.7110395380E+01
  1.9105132640E+01   1.1609526762E+01   3.0356619274E+01
  2.3093539085E+01   1.2108957135E+01   3.4555901454E+01
  2.7378860601E+01   1.1877164773E+01   3.8454990208E+01
  3.0436208793E+01   1.1314278358E+01   4.2404902810E+01
  3.4513622851E+01   1.1275379962E+01   4.6194410857E+01
  3.8369549221E+01   1.1350616753E+01   4.9168654296E+01
  3.3402804771E-01   1.5878166773E+01   1.5157923336E+01
  4.2428446587E+00   1.5274558702E+01   1.8878228181E+01
  8.0069751320E+00   1.5522480934E+01   2.2624263141E+01
  1.1717440339E+01   1.5017060829E+01   2.6932565690E+01
  1.5372858961E+01   1.5615753347E+01   3.0088011123E+01
  1.8829593058E+01   1.5509742419E+01   3.4396724517E+01
  2.3055727523E+01   1.4932153256E+01   3.8821296940E+01
  2.6795958949E+01   1.4926516301E+01   4.2923261161E+01
  3.0892332390E+01   1.5537082537E+01   4.5909181011E+01
  3.4777132509E+01   1.5595579497E+01   4.9673605144E+01
  9.1409828358E-02   1.9517075442E+01   1.8769302477E+01
  3.9956478887E+00   1.8719291436E+01   2.3383927526E+01
  7.3878898779E+00   1.9402191055E+01   2.6887663518E+01
  1.1846143309E+01   1.9211894847E+01   3.0635592818E+01
  1.5079491608E+01   1.9137959119E+01   3.4112903142E+01
  1.8918734740E+01   1.9073750405E+01   3.8753818523E+01
  2.3150174332E+01   1.8901775663E+01   4.2530190473E+01
  2.6544945922E+01   1.9013127874E+01   4.6001714924E+01
  3.0755501055E+01   1.9257879259E+01   4.9874477055E+01
  9.9473358704E-02   2.3414042755E+01   2.2785217837E+01
  3.8991985447E+00   2.3404266502E+01   2.6938314711E+01
  7.8746422293E+00   2.2920344798E+01   3.0398158195E+01
  1.1609361026E+01   2.2885656901E+01   3.4357623154E+01
  1.5300318839E+01   2.3307519288E+01   3.7664436187E+01
  1.9180245280E+01   2.3265750077E+01   4.2145189738E+01
  2.2590168710E+01   2.2809961743E+01   4.5853940593E+01
  2.6864526136E+01   2.2908513141E+01   4.9437924607E+01
  5.3448339019E+01   2.6957720019E+01   2.7102656300E+01
  4.4038860054E+00   2.7168128682E+01   3.0307205158E+01
  7.9229829206E+00   2.7258439380E+01   3.4669179659E+01
  1.1099676176E+01   2.6231666223E+01   3.8135596503E+01
  1.4843593570E+01   2.6850018034E+01   4.2333030907E+01
  1.9140074711E+01   2.6727331656E+01   4.6392498313E+01
  2.2984368984E+01   2.6966285788E+01   4.9457807766E+01
  3.9810234571E-01   3.0524961293E+01   3.0868147284E+01
  4.1947077965E+00   3.1008797498E+01   3.4601210944E+01
  8.1007416071E+00   3.0780898629E+01   3.8130864396E+01
  1.1461447038E+01   3.0413939665E+01   4.2109769862E+01
  1.5429316019E+01   3.0991725398E+01   4.5830913220E+01
  1.9149391911E+01   3.0994764199E+01   4.9950540317E+01
  2.8492812806E-02   3.4352173882E+01   3.4291097049E+01
  4.1918828928E+00   3.4143664322E+01   3.8296773967E+01
  7.2420808065E+00   3.4926292114E+01   4.1865951502E+01
  1.1557521955E+01   3.4808013792E+01   4.6175530634E+01
  1.4730128181E+01   3.4653655935E+01   5.0165601391E+01
  1.8688756092E-01   3.8295726791E+01   3.7582955988E+01
  3.4518969830E+00   3.8759537824E+01   4.1896928915E+01
  7.7539873875E+00   3.8067725336E+01   4.6068763175E+01
  1.1864342888E+01   3.8517129015E+01   4.9680572016E+01
  9.9696494851E-02   4.2291621834E+01   4.1885185124E+01
  4.0025261338E+00   4.2258504956E+01   4.5575387749E+01
  7.5766826897E+00   4.1716679100E+01   5.0058277015E+01
  7.7787162008E-02   4.6220953594E+01   4.5249086606E+01
  3.8570908575E+00   4.6338876232E+01   4.9185246919E+01
  5.3343042058E+01   4.9853266842E+01   5.0088124052E+01
  7.7150174527E+00   5.2963670246E+01   2.2885762798E-01
  1.1286454320E+01   5.3161114752E+01   3.8889954365E+00
  1.5745874981E+01   5.3341938681E+01   7.5105472307E+00
  1.9751954281E+01   5.2979073024E+01   1.1443218328E+01
  2.2823792436E+01   5.3357796771E+01   1.5437845274E+01
  2.6821790455E+01   1.4264584154E-01   1.8754183479E+01
  3.0379289313E+01   5.2892326007E+01   2.3145854058E+01
  3.4378570931E+01   5.3244704440E+01   2.6846660048E+01
  3.8821238175E+01   2.8556239376E-01   3.0625109264E+01
  4.1774071395E+01   1.9108636560E-01   3.4707528935E+01
  4.5778394891E+01   2.8405127245E-01   3.7888769204E+01
  5.0108231366E+01   3.9912061878E-01   4.2384540569E+01
  3.8473768169E+00   3.1690820186E+00   1.5472206485E-01
  7.9086521305E+00   4.0033282648E+00   3.9007084915E+00
  1.1354173593E+01   3.6222403477E+00   7.3505985901E+00
  1.4955861635E+01   3.9857664909E+00   1.1481823961E+01
  1.8940763677E+01   4.1458386302E+00   1.5223508458E+01
  2.2675869624E+01   4.1046538673E+00   1.8975241587E+01
  2.6395159320E+01   3.8264911716E+00   2.2651982569E+01
  3.0785481296E+01   3.9827388555E+00   2.6835514469E+01
  3.4648731428E+01   3.5640149948E+00   3.0340627003E+01
  3.8390127793E+01   4.0254327962E+00   3.4488096538E+01
  4.1993953992E+01   4.0039788250E+00   3.8376378959E+01
  4.5867681282E+01   4.2408540547E+00   4.2073852614E+01
  4.9515579081E+01   3.6191112699E+00   4.6343335219E+01
  4.1849709950E-02   7.9478697435E+00   6.4449661167E-02
  3.9260751366E+00   7.4865961636E+00   3.9732428683E+00
  7.5243264865E+00   8.0073319214E+00   7.9715821565E+00
  1.1432412525E+01   7.2002670778E+00   1.1642228196E+01
  1.5364839593E+01   7.6603186419E+00   1.5107432329E+01
  1.9336011648E+01   7.5152884407E+00   1.8952792120E+01
  2.3114690631E+01   7.2104237026E+00   2.3443189607E+01
  2.6978153013E+01   7.7969675573E+00   2.7277182404E+01
  3.0957281496E+01   7.9218363452E+00   3.0565392183E+01
  3.4827329426E+01   7.2331689589E+00   3.4442385206E+01
  3.8485613180E+01   8.2200304270E+00   3.8018636647E+01
  4.1881571713E+01   7.5811651426E+00   4.1884640185E+01
  4.6113981906E+01   7.8360870070E+00   4.5931745801E+01
  4.9972102078E+01   7.6054002950E+00   4.9770087979E+01
  1.3919521467E-01   1.1593688585E+01   3.4401909463E+00
  4.2063866963E+00   1.1831765697E+01   7.0333626428E+00
  7.2917100117E+00   1.1123650596E+01   1.1868331637E+01
  1.1762403652E+01   1.1529526884E+01   1.5691989558E+01
  1.5291601821E+01   1.1750780991E+01   1.9059260736E+01
  1.8947762591E+01   1.1107721802E+01   2.2664504316E+01
  2.2759969347E+01   1.1324539335E+01   2.6638655469E+01
  2.6999625181E+01   1.1539355732E+01   3.0991251923E+01
  3.0698661170E+01   1.1464572517E+01   3.4703262070E+01
  3.4773786206E+01   1.1756955909E+01   3.8147883137E+01
  3.8053113060E+01   1.1319986625E+01   4.1806259675E+01
  4.2073631904E+01   1.1400881628E+01   4.5976974466E+01
  4.6139107514E+01   1.1993090558E+01   4.9187853022E+01
  1.0013279391E-01   1.5670590785E+01   7.1348625135E+00
  3.5772835901E+00   1.5284209733E+01   1.1090737048E+01
  8.5114617108E+00   1.5877650515E+01   1.5712003983E+01
  1.1666492706E+01   1.5509323513E+01   1.9426323337E+01
  1.5505490351E+01   1.5832677089E+01   2.2889117542E+01
  1.9063774273E+01   1.5253007880E+01   2.6971977462E+01
  2.3589987207E+01   1.5161523085E+01   3.0531775599E+01
  2.6730362154E+01   1.5217433488E+01   3.4529508202E+01
  3.0790754337E+01   1.5830282025E+01   3.7769197996E+01
  3.4070399948E+01   1.5291112959E+01   4.2212703388E+01
  3.8212814877E+01   1.5450504921E+01   4.5702132472E+01
  4.1828962789E+01   1.5228822095E+01   4.9775932032E+01
  5.3427427446E+01   1.9319798767E+01   1.1698248727E+01
  4.2545031041E+00   1.8926870841E+01   1.4892241207E+01
  6.8804436148E+00   1.9391738362E+01   1.9464470736E+01
  1.1484650234E+01   1.9524091350E+01   2.3305794304E+01
  1.5626209917E+01   1.9483947684E+01   2.6687611397E+01
  1.9549101744E+01   1.9400794784E+01   3.0813900516E+01
  2.2919461713E+01   1.8930318490E+01   3.4920264815E+01
  2.6395029600E+01   1.9346055583E+01   3.8272981714E+01
  3.0469537633E+01   1.9138261344E+01   4.2119189056E+01
  3.4192429348E+01   1.9249216862E+01   4.5554103286E+01
  3.8728295105E+01   1.9304751027E+01   4.9983751091E+01
  5.3275467289E+01   2.2959967397E+01   1.5406439018E+01
  3.7335677265E+00   2.2792461089E+01   1.8598421471E+01
  7.4557397797E+00   2.2752346061E+01   2.3496060797E+01
  1.1702964594E+01   2.2386671242E+01   2.7167664888E+01
  1.5165311791E+01   2.2939091909E+01   3.0417805844E+01
  1.8639648356E+01   2.2971896634E+01   3.3938641433E+01
  2.2766169386E+01   2.3148179453E+01   3.7874873876E+01
  2.6662902659E+01   2.2575671995E+01   4.2071397513E+01
  3.1229788438E+01   2.3115182815E+01   4.5422461771E+01
  3.4345223080E+01   2.2947353364E+01   5.0060649536E+01
  5.3219645678E+01   2.6620395599E+01   1.9350778908E+01
  3.9501854194E+00   2.6546306103E+01   2.3235115344E+01
  8.0491897192E+00   2.6627761112E+01   2.7067603329E+01
  1.1631593558E+01   2.6299864991E+01   3.0639316983E+01
  1.5521107332E+01   2.6925829535E+01   3.4292864629E+01
  1.9044684660E+01   2.6510690318E+01   3.8337976456E+01
  2.3146667609E+01   2.6837899836E+01   4.2355618112E+01
  2.6993560568E+01   2.6713698714E+01   4.5954114782E+01
  3.0844335169E+01   2.6528402398E+01   4.9651866485E+01
  5.3071544178E+01   3.0835508028E+01   2.2956731288E+01
  4.0111877702E+00   3.0710651065E+01   2.6777216843E+01
  7.6719764136E+00   3.0863067058E+01   3.0607876944E+01
  1.2046108841E+01   3.0557359134E+01   3.4239297926E+01
  1.4974321038E+01   3.0774030307E+01   3.7951984899E+01
  1.8958578273E+01   3.0737698552E+01   4.1967386786E+01
  2.2644558734E+01   3.1051732911E+01   4.5815741530E+01
  2.6744175663E+01   3.0743614394E+01   4.9781387930E+01
  5.3040261491E+01   3.4572617933E+01   2.6840749325E+01
  3.8677100635E+00   3.4350367664E+01   3.0249318995E+01
  8.1522280379E+00   3.4514434120E+01   3.4847461537E+01
  1.1619842915E+01   3.4624040314E+01   3.8594902020E+01
  1.5355809064E+01   3.4496737682E+01   4.2027736729E+01
  1.9119308665E+01   3.4936876315E+01   4.5786602973E+01
  2.3313856408E+01   3.4190541578E+01   4.9682445183E+01
  5.3519590452E+01   3.8613056362E+01   3.0571729389E+01
  4.0169562894E+00   3.8186092615E+01   3.4448286771E+01
  7.7435203027E+00   3.8484686235E+01   3.8403019037E+01
  1.1148718424E+01   3.8678426032E+01   4.2322373715E+01
  1.4772158083E+01   3.8510273601E+01   4.5767618267E+01
  1.8864177375E+01   3.8722618351E+01   4.9512192062E+01
  5.2991750442E+01   4.1842417073E+01   3.4173684672E+01
  3.5807537530E+00   4.2229794383E+01   3.8375740181E+01
  7.6536233667E+00   4.2212540778E+01   4.2089108858E+01
  1.0951621764E+01   4.2328838189E+01   4.6109497821E+01
  1.5613814062E+01   4.2032491127E+01   4.9739271472E+01
  5.3455211691E+01   4.6268734296E+01   3.8013421564E+01
  4.0644647329E+00   4.5934463578E+01   4.1679757057E+01
  7.3808468814E+00   4.5916403856E+01   4.5625990096E+01
  1.1557122049E+01   4.6096197490E+01   4.9826131034E+01
  5.3449904370E+01   5.0078084501E+01   4.1954746679E+01
  3.7193807288E+00   5.0177369648E+01   4.6001744303E+01
  7.7947945368E+00   4.9463638728E+01   4.9662262394E+01
  1.5067874925E+01   5.0474980504E-02   5.3438640143E+01
  1.9742004180E+01   5.3132337808E+01   3.7891464418E+00
  2.2745926316E+01   5.3354941934E+01   7.5735666424E+00
  2.7007775508E+01   1.3426606475E-01   1.1736803628E+01
  3.0429803853E+01   2.2221214418E-01   1.5689623082E+01
  3.4340013780E+01   5.3417282491E+01   1.9246614538E+01
  3.7881584212E+01   5.3245463239E+01   2.3023750664E+01
  4.2336864299E+01   5.3539868335E+01   2.6369678506E+01
  4.5469809488E+01   5.3482432949E+01   3.0633864780E+01
  5.0490881758E+01   7.2832562544E-02   3.4385290839E+01
  1.1752134674E+01   3.9959392898E+00   5.3046599900E+01
  1.5407404923E+01   3.3612562785E+00   3.6434813646E+00
  1.9480517699E+01   3.7292031863E+00   7.2229099259E+00
  2.2412678403E+01   3.7308605069E+00   1.2053278279E+01
  2.6676870080E+01   3.9411476484E+00   1.5663943458E+01
  3.0257418431E+01   4.2305266389E+00   1.8660072783E+01
  3.4544474174E+01   3.2244137001E+00   2.3707283792E+01
  3.8422118021E+01   3.5967062914E+00   2.6966671870E+01
  4.2375719006E+01   3.4369413139E+00   3.1049205357E+01
  4.5585227428E+01   3.8303318962E+00   3.4437435540E+01
  4.9751893601E+01   4.0979408061E+00   3.8490812125E+01
  8.0948630519E+00   7.2277414852E+00   5.3384880347E+01
  1.1208588091E+01   8.0505140122E+00   3.4765283359E+00
  1.4891254084E+01   7.6136177520E+00   7.7701054863E+00
  1.8636997280E+01   7.1641490395E+00   1.0736113892E+01
  2.2753413327E+01   8.0266417917E+00   1.5066916520E+01
  2.6814638970E+01   7.6362503802E+00   1.9370631038E+01
  3.0240806807E+01   7.7357255017E+00   2.3222182051E+01
  3.4463917954E+01   7.6242727002E+00   2.7105813158E+01
  3.8429321279E+01   7.4161064952E+00   3.0738675053E+01
  4.2075768009E+01   7.5700517959E+00   3.4604168841E+01
  4.6344354882E+01   7.6524049489E+00   3.8282671735E+01
  4.9427786463E+01   7.9031507691E+00   4.1926821095E+01
  3.8245646579E+00   1.1501923457E+01   5.3242460627E+01
  7.4738666208E+00   1.1488785392E+01   3.7652236519E+00
  1.1367158220E+01   1.1452992812E+01   7.8535619531E+00
  1.5078017621E+01   1.1580502779E+01   1.1327173315E+01
  1.8977989871E+01   1.1632316966E+01   1.5648623901E+01
  2.2934968823E+01   1.1342144418E+01   1.8670089793E+01
  2.7047053276E+01   1.1235218050E+01   2.2790648621E+01
  3.0257916670E+01   1.2222723248E+01   2.6716223921E+01
  3.4419408474E+01   1.1765952790E+01   3.0641358058E+01
  3.8673404831E+01   1.1380000127E+01   3.3688155343E+01
  4.1992173188E+01   1.1850122019E+01   3.8017425042E+01
  4.6102257022E+01   1.1866961882E+01   4.1659560788E+01
  4.9602482212E+01   1.1476539903E+01   4.5688516195E+01
  2.0155748332E-01   1.5375694704E+01   5.3334297718E+01
  4.1283788960E+00   1.5770040433E+01   4.0097288311E+00
  7.7963726045E+00   1.5135112012E+01   7.8658979926E+00
  1.1319627986E+01   1.4867606921E+01   1.1782350001E+01
  1.5864914817E+01   1.5071005069E+01   1.4914608197E+01
  1.8976405128E+01   1.5518272612E+01   1.8889226813E+01
  2.2381797964E+01   1.4814270865E+01   2.2723492214E+01
  2.6495120296E+01   1.5021383132E+01   2.6599615310E+01
  3.0168472436E+01   1.5430688273E+01   3.1154274180E+01
  3.4487014417E+01   1.5299334489E+01   3.4528627223E+01
  3.8807486490E+01   1.5929718324E+01   3.8174848260E+01
  4.1810068496E+01   1.4849356065E+01   4.2053551936E+01
  4.5857718980E+01   1.5242885186E+01   4.5777101749E+01
  4.9397168216E+01   1.5534627737E+01   5.0010953951E+01
  3.0572664715E-01   1.9149823429E+01   3.4994612619E+00
  4.4793136399E+00   1.8838851790E+01   7.5526969348E+00
  7.9808258666E+00   1.9218621856E+01   1.1832840396E+01
  1.1833895898E+01   1.9563022037E+01   1.5134802678E+01
  1.5271960871E+01   1.9284008810E+01   1.9290679194E+01
  1.8974727124E+01   1.9310422867E+01   2.2730781868E+01
  2.2860716578E+01   1.9099158891E+01   2.7081099191E+01
  2.6731060722E+01   1.9043454191E+01   3.0855238088E+01
  3.0112869653E+01   1.8973971048E+01   3.4340935075E+01
  3.4623295703E+01   1.9222606846E+01   3.7802427646E+01
  3.8072264206E+01   1.9071391436E+01   4.2219698434E+01
  4.2089916826E+01   1.9300405245E+01   4.5775614611E+01
  4.5582203619E+01   1.9191863453E+01   4.9638322649E+01
  1.5550348327E-01   2.3288093300E+01   8.0526680968E+00
  3.7408704857E+00   2.2820053444E+01   1.1549092508E+01
  7.7050257776E+00   2.2915228509E+01   1.5551849452E+01
  1.1225372886E+01   2.2944030085E+01   1.9200963096E+01
  1.4977716342E+01   2.3000265649E+01   2.2660910476E+01
  1.8978534029E+01   2.3100028427E+01   2.7050846231E+01
  2.3090240695E+01   2.2908341659E+01   3.0810157417E+01
  2.7173006727E+01   2.3129556147E+01   3.4963187489E+01
  3.0403916146E+01   2.3380731226E+01   3.8423529726E+01
  3.4304188701E+01   2.2927846690E+01   4.1870369035E+01
  3.8184647553E+01   2.2753025938E+01   4.5535852137E+01
  4.2297328402E+01   2.3236485895E+01   4.9554137594E+01
  3.3352996326E-01   2.6403146497E+01   1.1981167122E+01
  3.7449963483E+00   2.6628286490E+01   1.5336436450E+01
  7.8301972763E+00   2.6393508643E+01   1.9308886744E+01
  1.1885190832E+01   2.7201685416E+01   2.3298946041E+01
  1.5400802184E+01   2.6345336778E+01   2.6698987170E+01