
     Program PWSCF v.7.0 starts on  3Dec2022 at 18:29:22 

     This program is part of the open-source Quantum ESPRESSO suite
     for quantum simulation of materials; please cite
         "P. Giannozzi et al., J. Phys.:Condens. Matter 21 395502 (2009);
         "P. Giannozzi et al., J. Phys.:Condens. Matter 29 465901 (2017);
         "P. Giannozzi et al., J. Chem. Phys. 152 154105 (2020);
          URL http://www.quantum-espresso.org", 
     in publications or presentations arising from this work. More details at
     http://www.quantum-espresso.org/quote

     Parallel version (MPI), running on    24 processors

     MPI processes distributed on     1 nodes
     R & G space division:  proc/nbgrp/npool/nimage =      24
     371710 MiB available memory on the printing compute node when the environment starts

     Reading input from pw.inp
Warning: card &CELL ignored
Warning: card / ignored

     Current dimensions of program PWSCF are:
     Max number of different atomic species (ntypx) = 10
     Max number of k-points (npk) =  40000
     Max angular momentum in pseudopotentials (lmaxx) =  4
     Message from routine cell_base_init:
     DEPRECATED: use true lattice parameter, not A to a.u. conversion factor

     IMPORTANT: XC functional enforced from input :
     Exchange-correlation= PBE
                           (   1   4   3   4   0   0   0)
     Any further DFT definition will be discarded
     Please, verify this is what you really want


     Subspace diagonalization in iterative solution of the eigenvalue problem:
     one sub-group per band group will be used
     scalapack distributed-memory algorithm (size of sub-group:  4*  4 procs)


     Parallelization info
     --------------------
     sticks:   dense  smooth     PW     G-vecs:    dense   smooth      PW
     Min        1194    1194    325                33359    33359    4727
     Max        1196    1196    327                33360    33360    4728
     Sum       28681   28681   7823               800625   800625  113459

     Using Slab Decomposition



     bravais-lattice index     =            0
     lattice parameter (alat)  =       1.0000  a.u.
     unit-cell volume          =    2096.1418 (a.u.)^3
     number of atoms/cell      =           24
     number of atomic types    =            1
     number of electrons       =        96.00
     number of Kohn-Sham states=           62
     kinetic-energy cutoff     =     200.0000  Ry
     charge density cutoff     =     800.0000  Ry
     scf convergence threshold =      1.0E-06
     mixing beta               =       0.7000
     number of iterations used =            8  plain     mixing
     Exchange-correlation= PBE
                           (   1   4   3   4   0   0   0)

     celldm(1)=   1.000000  celldm(2)=   0.000000  celldm(3)=   0.000000
     celldm(4)=   0.000000  celldm(5)=   0.000000  celldm(6)=   0.000000

     crystal axes: (cart. coord. in units of alat)
               a(1) = (  28.187375   0.000000   0.000000 )  
               a(2) = (   0.000000  16.000000   0.000000 )  
               a(3) = (   0.000000   0.000000   4.647785 )  

     reciprocal axes: (cart. coord. in units 2 pi/alat)
               b(1) = (  0.035477  0.000000  0.000000 )  
               b(2) = (  0.000000  0.062500  0.000000 )  
               b(3) = (  0.000000  0.000000  0.215156 )  


     PseudoPot. # 1 for C  read from file:
     .././06_C_4_1.2_1.2_pbe_n_v1.0.upf
     MD5 check sum: 7e0e17a2517474b8bea671dc4b65026c
     Pseudo is Norm-conserving + core correction, Zval =  4.0
     Generated using ONCVPSP code by D. R. Hamann
     Using radial grid of 1246 points,  4 beta functions with: 
                l(1) =   0
                l(2) =   0
                l(3) =   1
                l(4) =   1

     atomic species   valence    mass     pseudopotential
        C              4.00    12.00000     C ( 1.00)

     No symmetry found


                                    s                        frac. trans.

      isym =  1     identity                                     

 cryst.   s( 1) = (     1          0          0      )
                  (     0          1          0      )
                  (     0          0          1      )

 cart.    s( 1) = (  1.0000000  0.0000000  0.0000000 )
                  (  0.0000000  1.0000000  0.0000000 )
                  (  0.0000000  0.0000000  1.0000000 )


   Cartesian axes

     site n.     atom                  positions (alat units)
         1           C   tau(   1) = (  11.8436874   8.0000000   0.0000000  )
         2           C   tau(   2) = (  10.9444353  10.4706746   0.0000000  )
         3           C   tau(   3) = (   6.0781563  11.3287309   0.0000000  )
         4           C   tau(   4) = (   4.3881153   9.3146185   0.0000000  )
         5           C   tau(   5) = (   6.0781563   4.6712691   0.0000000  )
         6           C   tau(   6) = (   8.6674493   4.2147069   0.0000000  )
         7           C   tau(   7) = (   9.9218437  11.3287309   2.3238926  )
         8           C   tau(   8) = (   7.3325507  11.7852931   2.3238926  )
         9           C   tau(   9) = (   4.1563126   8.0000000   2.3238926  )
        10           C   tau(  10) = (   5.0555647   5.5293254   2.3238926  )
        11           C   tau(  11) = (   9.9218437   4.6712691   2.3238926  )
        12           C   tau(  12) = (  11.6118847   6.6853815   2.3238926  )
        13           C   tau(  13) = (  24.0310621   8.0000000   0.0000000  )
        14           C   tau(  14) = (  23.1318101  10.4706746   0.0000000  )
        15           C   tau(  15) = (  18.2655311  11.3287309   0.0000000  )
        16           C   tau(  16) = (  16.5754901   9.3146185   0.0000000  )
        17           C   tau(  17) = (  18.2655311   4.6712691   0.0000000  )
        18           C   tau(  18) = (  20.8548240   4.2147069   0.0000000  )
        19           C   tau(  19) = (  22.1092184  11.3287309   2.3238926  )
        20           C   tau(  20) = (  19.5199254  11.7852931   2.3238926  )
        21           C   tau(  21) = (  16.3436874   8.0000000   2.3238926  )
        22           C   tau(  22) = (  17.2429394   5.5293254   2.3238926  )
        23           C   tau(  23) = (  22.1092184   4.6712691   2.3238926  )
        24           C   tau(  24) = (  23.7992594   6.6853815   2.3238926  )

   Crystallographic axes

     site n.     atom                  positions (cryst. coord.)
         1           C   tau(   1) = (  0.4201770  0.5000000  0.0000000  )
         2           C   tau(   2) = (  0.3882744  0.6544172  0.0000000  )
         3           C   tau(   3) = (  0.2156340  0.7080457  0.0000000  )
         4           C   tau(   4) = (  0.1556766  0.5821637  0.0000000  )
         5           C   tau(   5) = (  0.2156340  0.2919543  0.0000000  )
         6           C   tau(   6) = (  0.3074940  0.2634192  0.0000000  )
         7           C   tau(   7) = (  0.3519960  0.7080457  0.5000000  )
         8           C   tau(   8) = (  0.2601360  0.7365808  0.5000000  )
         9           C   tau(   9) = (  0.1474530  0.5000000  0.5000000  )
        10           C   tau(  10) = (  0.1793556  0.3455828  0.5000000  )
        11           C   tau(  11) = (  0.3519960  0.2919543  0.5000000  )
        12           C   tau(  12) = (  0.4119534  0.4178363  0.5000000  )
        13           C   tau(  13) = (  0.8525470  0.5000000  0.0000000  )
        14           C   tau(  14) = (  0.8206444  0.6544172  0.0000000  )
        15           C   tau(  15) = (  0.6480040  0.7080457  0.0000000  )
        16           C   tau(  16) = (  0.5880466  0.5821637  0.0000000  )
        17           C   tau(  17) = (  0.6480040  0.2919543  0.0000000  )
        18           C   tau(  18) = (  0.7398640  0.2634192  0.0000000  )
        19           C   tau(  19) = (  0.7843660  0.7080457  0.5000000  )
        20           C   tau(  20) = (  0.6925060  0.7365808  0.5000000  )
        21           C   tau(  21) = (  0.5798230  0.5000000  0.5000000  )
        22           C   tau(  22) = (  0.6117256  0.3455828  0.5000000  )
        23           C   tau(  23) = (  0.7843660  0.2919543  0.5000000  )
        24           C   tau(  24) = (  0.8443234  0.4178363  0.5000000  )

     number of k points=     5  Fermi-Dirac smearing, width (Ry)=  0.0020
                       cart. coord. in units 2pi/alat
        k(    1) = (   0.0000000   0.0000000   0.0107578), wk =   0.4000000
        k(    2) = (   0.0000000   0.0000000   0.0322734), wk =   0.4000000
        k(    3) = (   0.0000000   0.0000000   0.0537891), wk =   0.4000000
        k(    4) = (   0.0000000   0.0000000   0.0753047), wk =   0.4000000
        k(    5) = (   0.0000000   0.0000000   0.0968203), wk =   0.4000000

                       cryst. coord.
        k(    1) = (   0.0000000   0.0000000   0.0500000), wk =   0.4000000
        k(    2) = (   0.0000000   0.0000000   0.1500000), wk =   0.4000000
        k(    3) = (   0.0000000   0.0000000   0.2500000), wk =   0.4000000
        k(    4) = (   0.0000000   0.0000000   0.3500000), wk =   0.4000000
        k(    5) = (   0.0000000   0.0000000   0.4500000), wk =   0.4000000

     Dense  grid:   800625 G-vectors     FFT dimensions: ( 256, 150,  45)

     Dynamical RAM for                 wfc:       3.95 MB

     Dynamical RAM for     wfc (w. buffer):      23.68 MB

     Dynamical RAM for           str. fact:       0.51 MB

     Dynamical RAM for           local pot:       0.00 MB

     Dynamical RAM for          nlocal pot:      12.22 MB

     Dynamical RAM for                qrad:       0.65 MB

     Dynamical RAM for          rho,v,vnew:       3.28 MB

     Dynamical RAM for               rhoin:       1.09 MB

     Dynamical RAM for            rho*nmix:       8.14 MB

     Dynamical RAM for           G-vectors:       2.16 MB

     Dynamical RAM for          h,s,v(r/c):       0.04 MB

     Dynamical RAM for          <psi|beta>:       0.18 MB

     Dynamical RAM for                 psi:       7.89 MB

     Dynamical RAM for                hpsi:       7.89 MB

     Dynamical RAM for      wfcinit/wfcrot:       7.98 MB

     Estimated static dynamical RAM per process >      47.54 MB

     Estimated max dynamical RAM per process >      71.70 MB

     Estimated total dynamical RAM >       1.68 GB

     Initial potential from superposition of free atoms

     starting charge      95.9989, renormalised to      96.0000
     Starting wfcs are random

     total cpu time spent up to now is        4.4 secs

     per-process dynamical memory:    69.8 Mb

     Self-consistent Calculation

     iteration #  1     ecut=   200.00 Ry     beta= 0.70
     Davidson diagonalization with overlap

---- Real-time Memory Report at c_bands before calling an iterative solver
           124 MiB given to the printing process from OS
            68 MiB allocation reported by mallinfo(arena+hblkhd)
        370203 MiB available memory on the node where the printing process lives
------------------
     ethr =  1.00E-02,  avg # of iterations = 13.6

     total cpu time spent up to now is       20.5 secs

     total energy              =    -287.61003885 Ry
     estimated scf accuracy    <       2.56684890 Ry

     iteration #  2     ecut=   200.00 Ry     beta= 0.70
     Davidson diagonalization with overlap

---- Real-time Memory Report at c_bands before calling an iterative solver
           146 MiB given to the printing process from OS
            81 MiB allocation reported by mallinfo(arena+hblkhd)
        369895 MiB available memory on the node where the printing process lives
------------------
     ethr =  2.67E-03,  avg # of iterations =  3.8

     total cpu time spent up to now is       25.5 secs

     total energy              =    -288.00074262 Ry
     estimated scf accuracy    <       0.51653353 Ry

     iteration #  3     ecut=   200.00 Ry     beta= 0.70
     Davidson diagonalization with overlap

---- Real-time Memory Report at c_bands before calling an iterative solver
           148 MiB given to the printing process from OS
            83 MiB allocation reported by mallinfo(arena+hblkhd)
        369862 MiB available memory on the node where the printing process lives
------------------
     ethr =  5.38E-04,  avg # of iterations =  5.2

     total cpu time spent up to now is       30.6 secs

     total energy              =    -288.09725352 Ry
     estimated scf accuracy    <       0.38105010 Ry

     iteration #  4     ecut=   200.00 Ry     beta= 0.70
     Davidson diagonalization with overlap

---- Real-time Memory Report at c_bands before calling an iterative solver
           149 MiB given to the printing process from OS
            84 MiB allocation reported by mallinfo(arena+hblkhd)
        369837 MiB available memory on the node where the printing process lives
------------------
     ethr =  3.97E-04,  avg # of iterations =  9.0

     total cpu time spent up to now is       35.5 secs

     total energy              =    -288.12917131 Ry
     estimated scf accuracy    <       0.69983037 Ry

     iteration #  5     ecut=   200.00 Ry     beta= 0.70
     Davidson diagonalization with overlap

---- Real-time Memory Report at c_bands before calling an iterative solver
           150 MiB given to the printing process from OS
            85 MiB allocation reported by mallinfo(arena+hblkhd)
        369813 MiB available memory on the node where the printing process lives
------------------
     ethr =  3.97E-04,  avg # of iterations =  2.0

     total cpu time spent up to now is       39.5 secs

     total energy              =    -288.20284737 Ry
     estimated scf accuracy    <       0.04321148 Ry

     iteration #  6     ecut=   200.00 Ry     beta= 0.70
     Davidson diagonalization with overlap

---- Real-time Memory Report at c_bands before calling an iterative solver
           151 MiB given to the printing process from OS
            85 MiB allocation reported by mallinfo(arena+hblkhd)
        369784 MiB available memory on the node where the printing process lives
------------------
     c_bands:  1 eigenvalues not converged
     ethr =  4.50E-05,  avg # of iterations = 11.2

     total cpu time spent up to now is       44.2 secs

     total energy              =    -288.20815494 Ry
     estimated scf accuracy    <       0.02516940 Ry

     iteration #  7     ecut=   200.00 Ry     beta= 0.70
     Davidson diagonalization with overlap

---- Real-time Memory Report at c_bands before calling an iterative solver
           152 MiB given to the printing process from OS
            87 MiB allocation reported by mallinfo(arena+hblkhd)
        369760 MiB available memory on the node where the printing process lives
------------------
     ethr =  2.62E-05,  avg # of iterations =  8.2

     total cpu time spent up to now is       48.6 secs

     total energy              =    -288.21083793 Ry
     estimated scf accuracy    <       0.00471531 Ry

     iteration #  8     ecut=   200.00 Ry     beta= 0.70
     Davidson diagonalization with overlap

---- Real-time Memory Report at c_bands before calling an iterative solver
           154 MiB given to the printing process from OS
            88 MiB allocation reported by mallinfo(arena+hblkhd)
        369734 MiB available memory on the node where the printing process lives
------------------
     ethr =  4.91E-06,  avg # of iterations =  4.8

     total cpu time spent up to now is       52.6 secs

     total energy              =    -288.21146956 Ry
     estimated scf accuracy    <       0.00013912 Ry

     iteration #  9     ecut=   200.00 Ry     beta= 0.70
     Davidson diagonalization with overlap

---- Real-time Memory Report at c_bands before calling an iterative solver
           155 MiB given to the printing process from OS
            89 MiB allocation reported by mallinfo(arena+hblkhd)
        369710 MiB available memory on the node where the printing process lives
------------------
     ethr =  1.45E-07,  avg # of iterations =  4.6

     total cpu time spent up to now is       57.4 secs

     total energy              =    -288.21151631 Ry
     estimated scf accuracy    <       0.00003102 Ry

     iteration # 10     ecut=   200.00 Ry     beta= 0.70
     Davidson diagonalization with overlap

---- Real-time Memory Report at c_bands before calling an iterative solver
           156 MiB given to the printing process from OS
            90 MiB allocation reported by mallinfo(arena+hblkhd)
        369683 MiB available memory on the node where the printing process lives
------------------
     ethr =  3.23E-08,  avg # of iterations =  2.0

     total cpu time spent up to now is       61.3 secs

     total energy              =    -288.21151958 Ry
     estimated scf accuracy    <       0.00000527 Ry

     iteration # 11     ecut=   200.00 Ry     beta= 0.70
     Davidson diagonalization with overlap

---- Real-time Memory Report at c_bands before calling an iterative solver
           156 MiB given to the printing process from OS
            91 MiB allocation reported by mallinfo(arena+hblkhd)
        369663 MiB available memory on the node where the printing process lives
------------------
     ethr =  5.49E-09,  avg # of iterations =  2.4

     total cpu time spent up to now is       65.5 secs

     total energy              =    -288.21152030 Ry
     estimated scf accuracy    <       0.00000100 Ry

     iteration # 12     ecut=   200.00 Ry     beta= 0.70
     Davidson diagonalization with overlap

---- Real-time Memory Report at c_bands before calling an iterative solver
           157 MiB given to the printing process from OS
            91 MiB allocation reported by mallinfo(arena+hblkhd)
        369660 MiB available memory on the node where the printing process lives
------------------
     ethr =  1.04E-09,  avg # of iterations =  2.8

     total cpu time spent up to now is       69.9 secs

     End of self-consistent calculation

          k = 0.0000 0.0000 0.0108 (100233 PWs)   bands (ev):

   -17.2121 -17.1037 -16.2432 -16.1028 -16.0894 -16.0328 -13.7761 -13.6452
   -13.5926 -13.5222 -10.8303 -10.6528  -9.7765  -9.7306  -6.6581  -6.5456
    -6.3727  -6.3479  -5.5510  -4.9768  -4.5187  -4.1629  -4.1506  -3.8876
    -3.8395  -3.7990  -3.1180  -3.0505  -3.0430  -3.0313  -1.7245  -1.6383
    -1.5450  -1.4817  -1.1233  -1.0740  -1.0555  -1.0400  -0.6351  -0.4108
    -0.0324   0.0458   0.1071   0.2067   0.2483   0.3229   2.3759   2.8110
     4.6509   5.0392   6.6981   6.9239   7.0830   7.4427   7.5860   7.7385
     7.7922   7.9521   8.0480   8.2725   8.5131   8.7114

     occupation numbers 
     1.0000   1.0000   1.0000   1.0000   1.0000   1.0000   1.0000   1.0000
     1.0000   1.0000   1.0000   1.0000   1.0000   1.0000   1.0000   1.0000
     1.0000   1.0000   1.0000   1.0000   1.0000   1.0000   1.0000   1.0000
     1.0000   1.0000   1.0000   1.0000   1.0000   1.0000   1.0000   1.0000
     1.0000   1.0000   1.0000   1.0000   1.0000   1.0000   1.0000   1.0000
     1.0000   1.0000   1.0000   1.0000   1.0000   1.0000   1.0000   1.0000
     0.0000   0.0000   0.0000   0.0000   0.0000   0.0000   0.0000   0.0000
     0.0000   0.0000   0.0000   0.0000   0.0000   0.0000

          k = 0.0000 0.0000 0.0323 (100217 PWs)   bands (ev):

   -16.8492 -16.7419 -15.8877 -15.7490 -15.7358 -15.6801 -13.4375 -13.3090
   -13.2577 -13.1888 -10.5218 -10.3492  -9.5062  -9.4604  -6.5129  -6.4349
    -6.2756  -6.2551  -5.2852  -5.2381  -5.1575  -4.5854  -4.3827  -4.3198
    -4.2916  -4.2915  -4.2134  -3.9715  -3.9609  -3.7097  -2.5969  -2.5583
    -2.4364  -2.3606  -1.4495  -1.3809  -1.3156  -1.2511  -1.0031  -0.9530
    -0.5419  -0.5374  -0.2895  -0.0687   0.3138   0.6169   2.7352   3.1561
     4.5250   4.9008   6.7331   6.9071   7.2934   7.2992   7.4946   7.7751
     8.0435   8.0985   8.1073   8.1903   8.3302   8.3388

     occupation numbers 
     1.0000   1.0000   1.0000   1.0000   1.0000   1.0000   1.0000   1.0000
     1.0000   1.0000   1.0000   1.0000   1.0000   1.0000   1.0000   1.0000
     1.0000   1.0000   1.0000   1.0000   1.0000   1.0000   1.0000   1.0000
     1.0000   1.0000   1.0000   1.0000   1.0000   1.0000   1.0000   1.0000
     1.0000   1.0000   1.0000   1.0000   1.0000   1.0000   1.0000   1.0000
     1.0000   1.0000   1.0000   1.0000   1.0000   1.0000   1.0000   1.0000
     0.0000   0.0000   0.0000   0.0000   0.0000   0.0000   0.0000   0.0000
     0.0000   0.0000   0.0000   0.0000   0.0000   0.0000

          k = 0.0000 0.0000 0.0538 (100119 PWs)   bands (ev):

   -16.1274 -16.0224 -15.1809 -15.0459 -15.0330 -14.9793 -12.7685 -12.6455
   -12.5963 -12.5307  -9.9082  -9.7451  -9.1883  -9.1362  -7.1546  -7.0986
    -7.0210  -7.0086  -7.0038  -6.9580  -5.2717  -5.2115  -5.0753  -5.0746
    -4.9209  -4.8885  -4.8239  -4.8120  -4.3108  -3.8278  -3.2277  -2.9833
    -2.9333  -2.7833  -2.7281  -2.6937  -1.6941  -1.5941  -1.4860  -1.3394
    -1.2600  -1.0680   0.3352   0.5274   0.9119   1.1870   3.4085   3.6222
     4.0246   4.2035   6.0872   6.1369   6.4620   6.5959   7.1143   7.1943
     7.3013   7.4418   8.0776   8.1678   8.2294   9.0775

     occupation numbers 
     1.0000   1.0000   1.0000   1.0000   1.0000   1.0000   1.0000   1.0000
     1.0000   1.0000   1.0000   1.0000   1.0000   1.0000   1.0000   1.0000
     1.0000   1.0000   1.0000   1.0000   1.0000   1.0000   1.0000   1.0000
     1.0000   1.0000   1.0000   1.0000   1.0000   1.0000   1.0000   1.0000
     1.0000   1.0000   1.0000   1.0000   1.0000   1.0000   1.0000   1.0000
     1.0000   1.0000   1.0000   1.0000   1.0000   1.0000   1.0000   0.9994
     0.0006   0.0000   0.0000   0.0000   0.0000   0.0000   0.0000   0.0000
     0.0000   0.0000   0.0000   0.0000   0.0000   0.0000

          k = 0.0000 0.0000 0.0753 (100033 PWs)   bands (ev):

   -15.0564 -14.9549 -14.1342 -14.0048 -13.9923 -13.9416 -11.8062 -11.6967
   -11.6478 -11.5918 -10.1550 -10.0780  -9.0065  -8.9761  -8.8727  -8.8625
    -8.8336  -8.8274  -7.2795  -7.2435  -6.8385  -6.7522  -6.7214  -6.6754
    -4.7863  -4.7377  -4.6306  -4.6136  -4.5766  -4.5145  -3.7075  -3.5924
    -2.9587  -2.8100  -2.7848  -2.7670  -2.4658  -2.0569  -1.2571  -0.8970
    -0.7926  -0.4477   1.0819   1.1303   1.5711   1.7455   2.3530   2.7409
     4.4545   4.8155   4.8786   5.0328   5.3017   5.3332   6.1174   6.1971
     6.2718   6.4742   7.8019   7.8632   9.6350  10.3500

     occupation numbers 
     1.0000   1.0000   1.0000   1.0000   1.0000   1.0000   1.0000   1.0000
     1.0000   1.0000   1.0000   1.0000   1.0000   1.0000   1.0000   1.0000
     1.0000   1.0000   1.0000   1.0000   1.0000   1.0000   1.0000   1.0000
     1.0000   1.0000   1.0000   1.0000   1.0000   1.0000   1.0000   1.0000
     1.0000   1.0000   1.0000   1.0000   1.0000   1.0000   1.0000   1.0000
     1.0000   1.0000   1.0000   1.0000   1.0000   1.0000   1.0000   1.0000
     0.0000   0.0000   0.0000   0.0000   0.0000   0.0000   0.0000   0.0000
     0.0000   0.0000   0.0000   0.0000   0.0000   0.0000

          k = 0.0000 0.0000 0.0968 ( 99841 PWs)   bands (ev):

   -13.6562 -13.5595 -12.7770 -12.6570 -12.6438 -12.5977 -11.9725 -11.8820
   -11.2982 -11.2384 -11.1922 -11.1661 -10.0233  -9.9564  -9.8943  -9.8552
    -8.6613  -8.5620  -8.5273  -8.4727  -7.7833  -7.6514  -6.3128  -6.2425
    -6.2195  -6.1950  -4.8916  -4.8736  -4.0085  -3.9784  -3.8943  -3.8794
    -3.2432  -3.2340  -3.1971  -3.1932  -1.3379  -0.7781  -0.1716   0.1117
     0.2906   0.4547   0.6299   0.9233   1.1133   1.2429   1.5128   1.6981
     4.3522   4.4477   4.6921   4.8456   5.0501   5.2208   5.3075   5.5277
     5.7414   6.0221   6.9124   7.1199  11.1783  11.3779

     occupation numbers 
     1.0000   1.0000   1.0000   1.0000   1.0000   1.0000   1.0000   1.0000
     1.0000   1.0000   1.0000   1.0000   1.0000   1.0000   1.0000   1.0000
     1.0000   1.0000   1.0000   1.0000   1.0000   1.0000   1.0000   1.0000
     1.0000   1.0000   1.0000   1.0000   1.0000   1.0000   1.0000   1.0000
     1.0000   1.0000   1.0000   1.0000   1.0000   1.0000   1.0000   1.0000
     1.0000   1.0000   1.0000   1.0000   1.0000   1.0000   1.0000   1.0000
     0.0000   0.0000   0.0000   0.0000   0.0000   0.0000   0.0000   0.0000
     0.0000   0.0000   0.0000   0.0000   0.0000   0.0000

     the Fermi energy is     3.8234 ev

!    total energy              =    -288.21152028 Ry
     estimated scf accuracy    <       0.00000063 Ry
     smearing contrib. (-TS)   =      -0.00000828 Ry
     internal energy E=F+TS    =    -288.21151200 Ry

     The total energy is F=E-TS. E is the sum of the following terms:
     one-electron contribution =    -643.03937441 Ry
     hartree contribution      =     357.30869467 Ry
     xc contribution           =    -103.59862706 Ry
     ewald contribution        =     101.11779480 Ry

     convergence has been achieved in  12 iterations

     Forces acting on atoms (cartesian axes, Ry/au):

     atom    1 type  1   force =     0.00283805   -0.00468258    0.00000714
     atom    2 type  1   force =     0.02059329    0.03195301   -0.00000140
     atom    3 type  1   force =    -0.01241969    0.03576356    0.00000093
     atom    4 type  1   force =    -0.04120250    0.00774315    0.00000325
     atom    5 type  1   force =    -0.02599245   -0.03044432    0.00000102
     atom    6 type  1   force =     0.01645702   -0.04109332    0.00000333
     atom    7 type  1   force =     0.02628904    0.02853073   -0.00000323
     atom    8 type  1   force =    -0.01643167    0.03984166   -0.00000421
     atom    9 type  1   force =    -0.03714775    0.00765816   -0.00000249
     atom   10 type  1   force =    -0.02675093   -0.03281048    0.00000351
     atom   11 type  1   force =     0.00997702   -0.03347114   -0.00000645
     atom   12 type  1   force =     0.02361623   -0.01405999   -0.00000413
     atom   13 type  1   force =     0.03715724   -0.00765796    0.00000033
     atom   14 type  1   force =     0.02675385    0.03282063    0.00000121
     atom   15 type  1   force =    -0.00997784    0.03347109    0.00000010
     atom   16 type  1   force =    -0.02360167    0.01406538   -0.00000121
     atom   17 type  1   force =    -0.02629249   -0.02853612    0.00000583
     atom   18 type  1   force =     0.01642770   -0.03982724   -0.00000137
     atom   19 type  1   force =     0.02597235    0.03042946    0.00000135
     atom   20 type  1   force =    -0.01645569    0.04109414   -0.00000467
     atom   21 type  1   force =    -0.00285547    0.00467778   -0.00000002
     atom   22 type  1   force =    -0.02058825   -0.03194234    0.00000028
     atom   23 type  1   force =     0.01242543   -0.03577810   -0.00000018
     atom   24 type  1   force =     0.04120919   -0.00774514    0.00000108
     The non-local contrib.  to forces
     atom    1 type  1   force =     0.00955892    0.01265461    0.00000878
     atom    2 type  1   force =     0.02354932    0.02002994   -0.00000184
     atom    3 type  1   force =    -0.01250766    0.01724585    0.00000011
     atom    4 type  1   force =    -0.02283269    0.01875592    0.00000293
     atom    5 type  1   force =    -0.00761287   -0.02415920    0.00000025
     atom    6 type  1   force =     0.00032029   -0.03287775    0.00000293
     atom    7 type  1   force =     0.00922477    0.02186458   -0.00000552
     atom    8 type  1   force =     0.00546517    0.02898218   -0.00000511
     atom    9 type  1   force =    -0.02036597   -0.00373003   -0.00000310
     atom   10 type  1   force =    -0.02924781   -0.01182272    0.00000428
     atom   11 type  1   force =     0.02190557   -0.01062779   -0.00000691
     atom   12 type  1   force =     0.01973274   -0.00710467   -0.00000541
     atom   13 type  1   force =     0.02044256    0.00379818   -0.00000101
     atom   14 type  1   force =     0.02915843    0.01184907   -0.00000032
     atom   15 type  1   force =    -0.02187055    0.01060289   -0.00000085
     atom   16 type  1   force =    -0.01974418    0.00716255   -0.00000180
     atom   17 type  1   force =    -0.00924212   -0.02177944    0.00000516
     atom   18 type  1   force =    -0.00552884   -0.02904031    0.00000008
     atom   19 type  1   force =     0.00756469    0.02425185    0.00000060
     atom   20 type  1   force =    -0.00036319    0.03279920   -0.00000631
     atom   21 type  1   force =    -0.00954526   -0.01262210   -0.00000135
     atom   22 type  1   force =    -0.02357823   -0.02001736    0.00000091
     atom   23 type  1   force =     0.01245673   -0.01724845    0.00000006
     atom   24 type  1   force =     0.02288046   -0.01878221    0.00000224
     The ionic contribution  to forces
     atom    1 type  1   force =     2.14689272   -0.07909852   -0.00000000
     atom    2 type  1   force =     1.97637070    8.69180741   -0.00000000
     atom    3 type  1   force =    -9.40791445    9.82370204   -0.00000000
     atom    4 type  1   force =   -12.71266945    4.26530514   -0.00000000
     atom    5 type  1   force =    -9.37468950   -9.82889303   -0.00000000
     atom    6 type  1   force =    -2.63614506  -11.11184364   -0.00000000
     atom    7 type  1   force =     0.32828771   10.52201101    0.00000000
     atom    8 type  1   force =    -6.20031344   10.89209549    0.00000000
     atom    9 type  1   force =   -13.03010549   -0.00571507    0.00000000
     atom   10 type  1   force =   -11.58995248   -7.63656857    0.00000000
     atom   11 type  1   force =     0.37498398  -10.50269952   -0.00000000
     atom   12 type  1   force =     2.31182962   -5.19566231   -0.00000000
     atom   13 type  1   force =    13.03010549    0.00571507   -0.00000000
     atom   14 type  1   force =    11.58995248    7.63656857   -0.00000000
     atom   15 type  1   force =    -0.37498398   10.50269952   -0.00000000
     atom   16 type  1   force =    -2.31182962    5.19566231   -0.00000000
     atom   17 type  1   force =    -0.32828771  -10.52201101   -0.00000000
     atom   18 type  1   force =     6.20031344  -10.89209549   -0.00000000
     atom   19 type  1   force =     9.37468950    9.82889303   -0.00000000
     atom   20 type  1   force =     2.63614506   11.11184364    0.00000000
     atom   21 type  1   force =    -2.14689272    0.07909852    0.00000000
     atom   22 type  1   force =    -1.97637070   -8.69180741   -0.00000000
     atom   23 type  1   force =     9.40791445   -9.82370204   -0.00000000
     atom   24 type  1   force =    12.71266945   -4.26530514   -0.00000000
     The local contribution  to forces
     atom    1 type  1   force =    -2.14327916    0.06117068   -0.00000203
     atom    2 type  1   force =    -1.97105861   -8.67162372   -0.00000021
     atom    3 type  1   force =     9.40269812   -9.79534166    0.00000098
     atom    4 type  1   force =    12.68310192   -4.27322700    0.00000024
     atom    5 type  1   force =     9.35007082    9.81314749    0.00000006
     atom    6 type  1   force =     2.65474774   11.09222634    0.00000029
     atom    7 type  1   force =    -0.30488049  -10.50583767    0.00000106
     atom    8 type  1   force =     6.17580875  -10.87007858   -0.00000027
     atom    9 type  1   force =    13.00208805    0.01762868   -0.00000016
     atom   10 type  1   force =    11.58393801    7.60778654   -0.00000076
     atom   11 type  1   force =    -0.38193285   10.46974876   -0.00000056
     atom   12 type  1   force =    -2.29773010    5.18535447    0.00000066
     atom   13 type  1   force =   -13.00214175   -0.01736894    0.00000087
     atom   14 type  1   force =   -11.58408203   -7.60741444    0.00000098
     atom   15 type  1   force =     0.38192861  -10.46961070    0.00000072
     atom   16 type  1   force =     2.29795883   -5.18520657   -0.00000010
     atom   17 type  1   force =     0.30467958   10.50576028    0.00000014
     atom   18 type  1   force =    -6.17612672   10.87002246   -0.00000195
     atom   19 type  1   force =    -9.35044722   -9.81302420    0.00000004
     atom   20 type  1   force =    -2.65497873  -11.09209397    0.00000062
     atom   21 type  1   force =     2.14338164   -0.06102592    0.00000090
     atom   22 type  1   force =     1.97107353    8.67171208   -0.00000066
     atom   23 type  1   force =    -9.40288585    9.79512148   -0.00000047
     atom   24 type  1   force =   -12.68314834    4.27328012   -0.00000121
     The core correction contribution to forces
     atom    1 type  1   force =    -0.01043332    0.00050908   -0.00000022
     atom    2 type  1   force =    -0.00820925   -0.00824678    0.00000004
     atom    3 type  1   force =     0.00496870   -0.01012568    0.00000003
     atom    4 type  1   force =     0.01098113   -0.00346590   -0.00000004
     atom    5 type  1   force =     0.00622616    0.00955023    0.00000002
     atom    6 type  1   force =    -0.00265952    0.01141063   -0.00000004
     atom    7 type  1   force =    -0.00627689   -0.00945130    0.00000019
     atom    8 type  1   force =     0.00245632   -0.01123698    0.00000010
     atom    9 type  1   force =     0.01120904   -0.00070138    0.00000007
     atom   10 type  1   force =     0.00857381    0.00784194   -0.00000009
     atom   11 type  1   force =    -0.00532674    0.00987722    0.00000010
     atom   12 type  1   force =    -0.01051991    0.00308414    0.00000006
     atom   13 type  1   force =    -0.01121307    0.00069895    0.00000008
     atom   14 type  1   force =    -0.00857021   -0.00784154    0.00000006
     atom   15 type  1   force =     0.00532464   -0.00987554    0.00000006
     atom   16 type  1   force =     0.01052185   -0.00308641    0.00000002
     atom   17 type  1   force =     0.00627713    0.00944664   -0.00000008
     atom   18 type  1   force =    -0.00245459    0.01124002   -0.00000011
     atom   19 type  1   force =    -0.00622599   -0.00955454   -0.00000001
     atom   20 type  1   force =     0.00266100   -0.01140596    0.00000014
     atom   21 type  1   force =     0.01043290   -0.00051014    0.00000004
     atom   22 type  1   force =     0.00821093    0.00824707   -0.00000009
     atom   23 type  1   force =    -0.00496720    0.01012490   -0.00000003
     atom   24 type  1   force =    -0.01098375    0.00346781   -0.00000009
     The Hubbard contrib.    to forces
     atom    1 type  1   force =     0.00000000    0.00000000    0.00000000
     atom    2 type  1   force =     0.00000000    0.00000000    0.00000000
     atom    3 type  1   force =     0.00000000    0.00000000    0.00000000
     atom    4 type  1   force =     0.00000000    0.00000000    0.00000000
     atom    5 type  1   force =     0.00000000    0.00000000    0.00000000
     atom    6 type  1   force =     0.00000000    0.00000000    0.00000000
     atom    7 type  1   force =     0.00000000    0.00000000    0.00000000
     atom    8 type  1   force =     0.00000000    0.00000000    0.00000000
     atom    9 type  1   force =     0.00000000    0.00000000    0.00000000
     atom   10 type  1   force =     0.00000000    0.00000000    0.00000000
     atom   11 type  1   force =     0.00000000    0.00000000    0.00000000
     atom   12 type  1   force =     0.00000000    0.00000000    0.00000000
     atom   13 type  1   force =     0.00000000    0.00000000    0.00000000
     atom   14 type  1   force =     0.00000000    0.00000000    0.00000000
     atom   15 type  1   force =     0.00000000    0.00000000    0.00000000
     atom   16 type  1   force =     0.00000000    0.00000000    0.00000000
     atom   17 type  1   force =     0.00000000    0.00000000    0.00000000
     atom   18 type  1   force =     0.00000000    0.00000000    0.00000000
     atom   19 type  1   force =     0.00000000    0.00000000    0.00000000
     atom   20 type  1   force =     0.00000000    0.00000000    0.00000000
     atom   21 type  1   force =     0.00000000    0.00000000    0.00000000
     atom   22 type  1   force =     0.00000000    0.00000000    0.00000000
     atom   23 type  1   force =     0.00000000    0.00000000    0.00000000
     atom   24 type  1   force =     0.00000000    0.00000000    0.00000000
     The SCF correction term to forces
     atom    1 type  1   force =     0.00010134    0.00008058    0.00000004
     atom    2 type  1   force =    -0.00005643   -0.00001480    0.00000005
     atom    3 type  1   force =     0.00033805    0.00028202   -0.00000077
     atom    4 type  1   force =     0.00021904    0.00037402   -0.00000046
     atom    5 type  1   force =     0.00001539   -0.00009080    0.00000012
     atom    6 type  1   force =     0.00019602   -0.00000988   -0.00000041
     atom    7 type  1   force =    -0.00006361   -0.00005687    0.00000047
     atom    8 type  1   force =     0.00015398    0.00007857    0.00000049
     atom    9 type  1   force =     0.00002906    0.00017498    0.00000013
     atom   10 type  1   force =    -0.00006002   -0.00004864   -0.00000049
     atom   11 type  1   force =     0.00034950    0.00022922    0.00000035
     atom   12 type  1   force =     0.00030632    0.00026740   -0.00000001
     atom   13 type  1   force =    -0.00003355   -0.00050219   -0.00000017
     atom   14 type  1   force =     0.00029763   -0.00034202   -0.00000009
     atom   15 type  1   force =    -0.00037411   -0.00034605   -0.00000040
     atom   16 type  1   force =    -0.00050611   -0.00046747    0.00000009
     atom   17 type  1   force =     0.00028307    0.00004642    0.00000004
     atom   18 type  1   force =     0.00022686    0.00004509    0.00000004
     atom   19 type  1   force =     0.00039381   -0.00013765    0.00000015
     atom   20 type  1   force =     0.00008262   -0.00004974    0.00000031
     atom   21 type  1   force =    -0.00022959   -0.00026356   -0.00000017
     atom   22 type  1   force =     0.00007867   -0.00007770   -0.00000045
     atom   23 type  1   force =    -0.00009026   -0.00007498   -0.00000031
     atom   24 type  1   force =    -0.00020619   -0.00040670   -0.00000043

     Total force =     0.183281     Total SCF correction =     0.001653

     Writing all to output data dir ./calc.save/

     init_run     :      4.20s CPU      4.37s WALL (       1 calls)
     electrons    :     60.69s CPU     65.60s WALL (       1 calls)
     forces       :      2.25s CPU      2.27s WALL (       1 calls)

     Called by init_run:
     wfcinit      :      1.38s CPU      1.51s WALL (       1 calls)
     wfcinit:wfcr :      1.22s CPU      1.35s WALL (       5 calls)
     potinit      :      0.81s CPU      0.82s WALL (       1 calls)
     hinit0       :      1.77s CPU      1.78s WALL (       1 calls)

     Called by electrons:
     c_bands      :     53.48s CPU     57.60s WALL (      12 calls)
     sum_band     :      6.18s CPU      6.81s WALL (      12 calls)
     v_of_rho     :      0.90s CPU      0.96s WALL (      13 calls)
     v_h          :      0.04s CPU      0.05s WALL (      13 calls)
     v_xc         :      0.93s CPU      0.98s WALL (      14 calls)
     mix_rho      :      0.14s CPU      0.14s WALL (      12 calls)

     Called by c_bands:
     init_us_2    :      0.55s CPU      0.56s WALL (     130 calls)
     init_us_2:cp :      0.55s CPU      0.55s WALL (     130 calls)
     cegterg      :     51.86s CPU     55.96s WALL (      60 calls)

     Called by sum_band:
     sum_band:wei :      0.00s CPU      0.00s WALL (      12 calls)
     sum_band:loo :      6.12s CPU      6.74s WALL (      12 calls)
     sum_band:buf :      0.08s CPU      0.09s WALL (      60 calls)
     sum_band:ini :      0.25s CPU      0.25s WALL (      60 calls)

     Called by *egterg:
     cdiaghg      :      1.72s CPU      1.76s WALL (     408 calls)
     cegterg:over :      2.89s CPU      2.90s WALL (     348 calls)
     cegterg:upda :      2.45s CPU      2.48s WALL (     348 calls)
     cegterg:last :      2.90s CPU      2.95s WALL (     159 calls)
     cdiaghg:chol :      0.10s CPU      0.10s WALL (     408 calls)
     cdiaghg:inve :      0.02s CPU      0.02s WALL (     408 calls)
     cdiaghg:para :      0.18s CPU      0.20s WALL (     816 calls)
     h_psi        :     41.91s CPU     45.99s WALL (     413 calls)
     g_psi        :      0.24s CPU      0.24s WALL (     348 calls)

     Called by h_psi:
     h_psi:calbec :      3.02s CPU      3.09s WALL (     413 calls)
     vloc_psi     :     35.66s CPU     39.65s WALL (     413 calls)
     add_vuspsi   :      2.97s CPU      2.99s WALL (     413 calls)

     General routines
     calbec       :      3.30s CPU      3.37s WALL (     433 calls)
     fft          :      0.62s CPU      0.68s WALL (     140 calls)
     ffts         :      0.03s CPU      0.03s WALL (      12 calls)
     fftw         :     37.74s CPU     42.10s WALL (   27198 calls)

     Parallel routines

     PWSCF        :   1m 7.36s CPU   1m13.98s WALL


   This run was terminated on:  18:30:36   3Dec2022            

=------------------------------------------------------------------------------=
   JOB DONE.
=------------------------------------------------------------------------------=
